 Entering Gaussian System, Link 0=gdv
 Input=pyrrole.gjf
 Output=pyrrole.log
 Initial command:
 "/Users/vincenzobarone/gdv_j32p/gdv/l1.exe" -scrdir="/Users/vincenzobarone/Documents/GAUSSIAN_SCRATCH/" "/Users/vincenzobarone/Documents/GAUSSIAN_SCRATCH/Gau-58203.inp" "pyrrole.log" 
 Entering Link 1 = /Users/vincenzobarone/gdv_j32p/gdv/l1.exe PID=     58204.
  
 Copyright (c) 1988-2025, Gaussian, Inc.  All Rights Reserved.
  
 This is the private, development version of
 the Gaussian(R) DV system of programs. It is based on
 the Gaussian(R) 16 system (copyright 2016, Gaussian, Inc.),
 the Gaussian(R) 09 system (copyright 2009, Gaussian, Inc.),
 the Gaussian(R) 03 system (copyright 2003, Gaussian, Inc.),
 the Gaussian(R) 98 system (copyright 1998, Gaussian, Inc.),
 the Gaussian(R) 94 system (copyright 1995, Gaussian, Inc.),
 the Gaussian 92(TM) system (copyright 1992, Gaussian, Inc.),
 the Gaussian 90(TM) system (copyright 1990, Gaussian, Inc.),
 the Gaussian 88(TM) system (copyright 1988, Gaussian, Inc.),
 the Gaussian 86(TM) system (copyright 1986, Carnegie Mellon
 University), and the Gaussian 82(TM) system (copyright 1983,
 Carnegie Mellon University). Gaussian is a federally registered
 trademark of Gaussian, Inc.
  
 This software contains proprietary and confidential information,
 including trade secrets, belonging to Gaussian, Inc.
  
 This software is provided under written license and may be
 used, copied, transmitted, or stored only in accord with that
 written license.
  
 The following legend is applicable only to US Government
 contracts under FAR:
  
                    RESTRICTED RIGHTS LEGEND
  
 Use, reproduction and disclosure by the US Government is
 subject to restrictions as set forth in subparagraphs (a)
 and (c) of the Commercial Computer Software - Restricted
 Rights clause in FAR 52.227-19.
  
 Gaussian, Inc.
 340 Quinnipiac St., Bldg. 40, Wallingford CT 06492
  
  
 ---------------------------------------------------------------
 Warning -- This program may not be used in any manner that
 competes with the business of Gaussian, Inc. or will provide
 assistance to any competitor of Gaussian, Inc.  The licensee
 of this program is prohibited from giving any competitor of
 Gaussian, Inc. access to this program.  By using this program,
 the user acknowledges that Gaussian, Inc. is engaged in the
 business of creating and licensing software in the field of
 computational chemistry and represents and warrants to the
 licensee that it is not a competitor of Gaussian, Inc. and that
 it will not use this program in any manner prohibited above.
 ---------------------------------------------------------------
  

 Cite this work as:
 Gaussian Development Version, Revision J.32+,
 M. J. Frisch, G. W. Trucks, G. Scalmani, J. R. Cheeseman, X. Li, 
 J. Bloino, B. G. Janesko, A. V. Marenich, J. Zheng, F. Lipparini, 
 A. Jenkins, A. Liu, H. Liu, H. B. Schlegel, G. E. Scuseria, 
 M. A. Robb, V. Barone, G. A. Petersson, H. Nakatsuji, B. Mennucci, 
 C. Adamo, N. Rega, M. Caricato, H. P. Hratchian, J. V. Ortiz, 
 F. Pawlowski, A. F. Izmaylov, H. Hu, C. Liao, J. L. Sonnenberg, 
 D. Williams-Young, F. Ding, R. Gomperts, F. Egidi, J. Goings, 
 B. Peng, A. Petrone, T. Henderson, D. Ranasinghe, V. G. Zakrzewski, 
 J. Gao, G. Zheng, M. Mendolicchio, W. Liang, M. Hada, M. Ehara, 
 K. Toyota, R. Fukuda, J. Hasegawa, M. Ishida, T. Nakajima, Y. Honda, 
 O. Kitao, H. Nakai, T. Vreven, K. Throssell, J. A. Montgomery, Jr., 
 J. E. Peralta, F. Ogliaro, M. J. Bearpark, J. J. Heyd, 
 E. N. Brothers, K. N. Kudin, V. N. Staroverov, T. A. Keith, 
 R. Kobayashi, J. Normand, K. Raghavachari, A. P. Rendell, 
 J. C. Burant, S. S. Iyengar, M. Cossi, J. M. Millam, M. Klene, 
 R. Cammi, R. L. Martin, O. Farkas, J. B. Foresman, and D. J. Fox, 
 Gaussian, Inc., Wallingford CT, 2024.
 
 *********************************************
 Gaussian DV:  AppleM1-GDVRevJ.32+ 19-Oct-2025
                  28-Jun-2026 
 *********************************************
 --------------------------------
 #p hf/sto-3g opt=readallgic freq
 --------------------------------
 1/18=20,19=15,37=210000000,38=1,145=602/1,3;
 2/9=110,12=2/2;
 3/6=3,11=9,25=1,30=1,71=1/1,2,3;
 4//1;
 5/5=2,8=3,13=1,38=5/2,8;
 6/7=2,8=2,9=2,10=2,28=1/1;
 7//1,2,3,16;
 1/18=20,19=15/3(2);
 2/9=110/2;
 99//99;
 2/9=110/2;
 3/6=3,11=9,25=1,30=1,71=1/1,2,3;
 4/5=5,16=3,69=1/1;
 5/5=2,8=3,13=1,38=5/2,8;
 7//1,2,3,16;
 1/18=20,19=15/3(-5);
 2/9=110/2;
 6/7=2,8=2,9=2,10=2,19=2,28=1/1;
 99/9=1/99;
 Leave Link    1 at Sun Jun 28 00:25:49 2026, MaxMem=           0 cpu:               0.0 elap:               0.0
 (Enter /Users/vincenzobarone/gdv_j32p/gdv/l101.exe)
 -----------------------------------------
 MATRIX pyrrole symmetrized GIC ReadAllGIC
 -----------------------------------------
 Symbolic Z-matrix:
 Charge =     0 Multiplicity =     1
 C                     0.98241   0.7117    0. 
 C                     0.98241  -0.7117    0. 
 C                    -0.33131   1.12247   0. 
 H                     1.84409   1.35997   0. 
 C                    -0.33131  -1.12247   0. 
 H                     1.84409  -1.35997   0. 
 N                    -1.11852   0.        0. 
 H                    -0.76499   2.10883   0. 
 H                    -2.12214   0.        0. 
 H                    -0.76499  -2.10883   0. 
 
 Initializing the GIC definitions file.

 CrInp1: Reading the GIC input below.
 A1Str001 = R(1,2)
 A1Str002 = 0.707106781187*(R(1,3))+0.707106781187*(R(2,5))
 A1Str003 = 0.707106781187*(R(1,4))+0.707106781187*(R(2,6))
 A1Str004 = 0.707106781187*(R(3,7))+0.707106781187*(R(5,7))
 A1Str005 = 0.707106781187*(R(3,8))+0.707106781187*(R(5,10))
 A1Str006 = R(7,9)
 B2Str001(Frozen) = 0.707106781187*(R(1,3))-0.707106781187*(R(2,5))
 B2Str002(Frozen) = 0.707106781187*(R(1,4))-0.707106781187*(R(2,6))
 B2Str003(Frozen) = 0.707106781187*(R(3,7))-0.707106781187*(R(5,7))
 B2Str004(Frozen) = 0.707106781187*(R(3,8))-0.707106781187*(R(5,10))
 A1Bend001 = 0.5*(A(4,1,3))-0.5*(A(4,1,2))+0.5*(A(6,2,5))-0.5*(A(6,2,1))
 A1Bend002 = 0.5*(A(8,3,7))-0.5*(A(8,3,1))+0.5*(A(10,5,7))-0.5*(A(10,5,2))
 B2Bend001(Frozen) = 0.5*(A(4,1,3))-0.5*(A(4,1,2))-0.5*(A(6,2,5))+0.5*(A(6,2,1))
 B2Bend002(Frozen) = 0.5*(A(8,3,7))-0.5*(A(8,3,1))-0.5*(A(10,5,7))+0.5*(A(10,5,2))
 B2Bend003(Frozen) = 0.707106781187*(A(9,7,5))-0.707106781187*(A(9,7,3))
 A1CyBe001 = 0.195439507585*(A(1,2,5))-0.511667273602*(A(2,5,7))+0.632455532034*(A(5,7,3))-0.511667273602*(A(7,3,1))+0.19
   5439507585*(A(3,1,2))
 B2CyBe001(Frozen) = 0.601500955008*(A(1,2,5))-0.37174803446*(A(2,5,7))+0.37174803446*(A(7,3,1))-0.601500955008*(A(3,1,2)
   )
 A2RPck001(Frozen) = -0.601500955008*(D(5,7,3,1))+0.37174803446*(D(7,3,1,2))+0.37174803446*(D(1,2,5,7))-0.601500955008*(D
   (2,5,7,3))
 B1RPck001(Frozen) = -0.195439507585*(D(5,7,3,1))+0.511667273602*(D(7,3,1,2))+0.632455532034*(D(3,1,2,5))-0.511667273602*
   (D(1,2,5,7))+0.195439507585*(D(2,5,7,3))
 A2OuPl001(Frozen) = 0.707106781187*(U(1,2,3,4))+0.707106781187*(U(2,1,5,6))
 A2OuPl002(Frozen) = 0.707106781187*(U(3,1,7,8))+0.707106781187*(U(5,2,7,10))
 B1OuPl001(Frozen) = 0.707106781187*(U(1,2,3,4))-0.707106781187*(U(2,1,5,6))
 B1OuPl002(Frozen) = 0.707106781187*(U(3,1,7,8))-0.707106781187*(U(5,2,7,10))
 B1OuPl003(Frozen) = U(7,3,5,9)
 
 ITRead=  0  0  0  0  0  0  0  0  0  0
 MicOpt= -1 -1 -1 -1 -1 -1 -1 -1 -1 -1
 NAtoms=     10 NQM=       10 NQMF=       0 NMMI=      0 NMMIF=      0
                NMic=       0 NMicF=      0.
                    Isotopes and Nuclear Properties:
 (Nuclear quadrupole moments (NQMom) in fm**2, nuclear magnetic moments (NMagM)
  in nuclear magnetons)

  Atom         1           2           3           4           5           6           7           8           9          10
 IAtWgt=          12          12          12           1          12           1          14           1           1           1
 AtmWgt=  12.0000000  12.0000000  12.0000000   1.0078250  12.0000000   1.0078250  14.0030740   1.0078250   1.0078250   1.0078250
 NucSpn=           0           0           0           1           0           1           2           1           1           1
 AtZEff=    0.000000    0.000000    0.000000    0.000000    0.000000    0.000000    0.000000    0.000000    0.000000    0.000000
 NQMom=    0.0000000   0.0000000   0.0000000   0.0000000   0.0000000   0.0000000   2.0440000   0.0000000   0.0000000   0.0000000
 NMagM=    0.0000000   0.0000000   0.0000000   2.7928460   0.0000000   2.7928460   0.4037610   2.7928460   2.7928460   2.7928460
 AtZNuc=   6.0000000   6.0000000   6.0000000   1.0000000   6.0000000   1.0000000   7.0000000   1.0000000   1.0000000   1.0000000
 Leave Link  101 at Sun Jun 28 00:25:49 2026, MaxMem=   104857600 cpu:               0.1 elap:               0.1
 (Enter /Users/vincenzobarone/gdv_j32p/gdv/l103.exe)

 GradGradGradGradGradGradGradGradGradGradGradGradGradGradGradGradGradGrad
 Berny optimization.
 Initialization pass.
                           ----------------------------
                           !    Initial Parameters    !
                           ! (Angstroms and Degrees)  !
 --------------------------                            --------------------------
 ! Name      Definition          Value          Derivative Info.                !
 --------------------------------------------------------------------------------
 ! A1Str001  R(1,2)              1.4234         estimate D2E/DX2                !
 ! A1Str002  GIC-13              3.6785         estimate D2E/DX2                !
 ! A1Str003  GIC-22              2.8818         estimate D2E/DX2                !
 ! A1Str004  GIC-31              3.664          estimate D2E/DX2                !
 ! A1Str005  GIC-40              2.8796         estimate D2E/DX2                !
 ! A1Str006  R(7,9)              1.0036         estimate D2E/DX2                !
 ! B2Str001  GIC-44              0.0            Frozen                          !
 ! B2Str002  GIC-45              0.0            Frozen                          !
 ! B2Str003  GIC-46              0.0            Frozen                          !
 ! B2Str004  GIC-47              0.0            Frozen                          !
 ! A1Bend001 GIC-82             -0.0222         estimate D2E/DX2                !
 ! A1Bend002 GIC-115            -0.1723         estimate D2E/DX2                !
 ! B2Bend001 GIC-117             0.0            Frozen                          !
 ! B2Bend002 GIC-119             0.0            Frozen                          !
 ! B2Bend003 GIC-135             0.0            Frozen                          !
 ! A1CyBe001 GIC-175             0.0225         estimate D2E/DX2                !
 ! B2CyBe001 GIC-184             0.0            Frozen                          !
 ! A2RPck001 GIC-344             0.0            Frozen                          !
 ! B1RPck001 GIC-382             0.0            Frozen                          !
 ! A2OuPl001 GIC-482             0.0            Frozen                          !
 ! A2OuPl002 GIC-572             0.0            Frozen                          !
 ! B1OuPl001 GIC-573             0.0            Frozen                          !
 ! B1OuPl002 GIC-574             0.0            Frozen                          !
 ! B1OuPl003 U(7,3,5,9)          0.0            Frozen                          !
 --------------------------------------------------------------------------------
 NOTE: GIC-type coordinates are in arbitrary units.
 Trust Radius=3.00D-01 FncErr=1.00D-07 GrdErr=1.00D-07 EigMax=2.50D+02 EigMin=1.00D-04
 Number of steps in this run=     34 maximum allowed number of steps=    100.
 GradGradGradGradGradGradGradGradGradGradGradGradGradGradGradGradGradGrad

 Leave Link  103 at Sun Jun 28 00:25:49 2026, MaxMem=   104857600 cpu:               0.0 elap:               0.0
 (Enter /Users/vincenzobarone/gdv_j32p/gdv/l202.exe)
                          Input orientation:                          
 ---------------------------------------------------------------------
 Center     Atomic      Atomic             Coordinates (Angstroms)
 Number     Number       Type             X           Y           Z
 ---------------------------------------------------------------------
      1          6           0        0.982406    0.711702    0.000000
      2          6           0        0.982406   -0.711702    0.000000
      3          6           0       -0.331306    1.122466    0.000000
      4          1           0        1.844094    1.359972    0.000000
      5          6           0       -0.331306   -1.122466    0.000000
      6          1           0        1.844094   -1.359972    0.000000
      7          7           0       -1.118521    0.000000    0.000000
      8          1           0       -0.764995    2.108829    0.000000
      9          1           0       -2.122136    0.000000    0.000000
     10          1           0       -0.764995   -2.108829    0.000000
 ---------------------------------------------------------------------
                    Distance matrix (angstroms):
                    1          2          3          4          5
     1  C    0.000000
     2  C    1.423404   0.000000
     3  C    1.376432   2.256105   0.000000
     4  H    1.078314   2.243733   2.188327   0.000000
     5  C    2.256105   1.376432   2.244932   3.300737   0.000000
     6  H    2.243733   1.078314   3.300737   2.719944   2.188327
     7  N    2.218201   2.218201   1.370999   3.259848   1.370999
     8  H    2.237269   3.317952   1.077496   2.714430   3.260269
     9  H    3.185075   3.185075   2.113528   4.192911   2.113528
    10  H    3.317952   2.237269   3.260269   4.340498   1.077496
                    6          7          8          9         10
     6  H    0.000000
     7  N    3.259848   0.000000
     8  H    4.340498   2.138256   0.000000
     9  H    4.192911   1.003615   2.507786   0.000000
    10  H    2.714430   2.138256   4.217658   2.507786   0.000000
 Stoichiometry    C4H5N
 Framework group  C2V[C2(NH),SGV(C4H4)]
 Deg. of freedom     9
 Full point group                 C2V     NOp   4
 Largest Abelian subgroup         C2V     NOp   4
 Largest concise Abelian subgroup C2      NOp   2
                         Standard orientation:                         
 ---------------------------------------------------------------------
 Center     Atomic      Atomic             Coordinates (Angstroms)
 Number     Number       Type             X           Y           Z
 ---------------------------------------------------------------------
      1          6           0        0.000000    0.711702   -0.981861
      2          6           0        0.000000   -0.711702   -0.981861
      3          6           0        0.000000    1.122466    0.331851
      4          1           0        0.000000    1.359972   -1.843549
      5          6           0        0.000000   -1.122466    0.331851
      6          1           0        0.000000   -1.359972   -1.843549
      7          7           0        0.000000    0.000000    1.119066
      8          1           0        0.000000    2.108829    0.765540
      9          1           0        0.000000    0.000000    2.122681
     10          1           0        0.000000   -2.108829    0.765540
 ---------------------------------------------------------------------
 Rotational constants (GHZ):           9.1742469           9.0425131           4.5539518
 Leave Link  202 at Sun Jun 28 00:25:49 2026, MaxMem=   104857600 cpu:               0.0 elap:               0.0
 (Enter /Users/vincenzobarone/gdv_j32p/gdv/l301.exe)
 Standard basis: STO-3G (5D, 7F)
 Ernie: Thresh=  0.10000D-02 Tol=  0.10000D-05 Strict=F.
 There are    14 symmetry adapted cartesian basis functions of A1  symmetry.
 There are     2 symmetry adapted cartesian basis functions of A2  symmetry.
 There are     3 symmetry adapted cartesian basis functions of B1  symmetry.
 There are    11 symmetry adapted cartesian basis functions of B2  symmetry.
 There are    14 symmetry adapted basis functions of A1  symmetry.
 There are     2 symmetry adapted basis functions of A2  symmetry.
 There are     3 symmetry adapted basis functions of B1  symmetry.
 There are    11 symmetry adapted basis functions of B2  symmetry.
    30 basis functions,    90 primitive gaussians,    30 cartesian basis functions
    18 alpha electrons       18 beta electrons
       nuclear repulsion energy       161.0925271150 Hartrees.
 IExCor=         0 DFT=F Ex=HF Corr=None N6=None ScaHFX=  1.000000
 ScaDFX=  1.000000  1.000000  1.000000  1.000000  1.000000  0.000000
 ScaDFX=  0.000000  0.000000  0.000000  0.000000  0.000000  0.000000
 Grid=UltraFine IRanWt=     -1 IRanGd=            0 ICorTp=0 IEDCtl=  2004
 NAtoms=   10 NActive=   10 NUniq=    6 SFac= 2.78D+00 NAtFMM=   60 NAOKFM=F Big=F
 Integral buffers will be    131072 words long.
 Raffenetti 1 integral format.
 Two-electron integral symmetry is turned on.
 Leave Link  301 at Sun Jun 28 00:25:49 2026, MaxMem=   104857600 cpu:               0.0 elap:               0.0
 (Enter /Users/vincenzobarone/gdv_j32p/gdv/l302.exe)
 NPDir=0 NMtPBC=     1 NCelOv=     1 NCel=       1 NClECP=     1 NCelD=      1
         NCelK=      1 NCelE2=     1 NClLst=     1 CellRange=     0.0.
 One-electron integrals computed using PRISM.
 One-electron integral symmetry used in STVInt
 NBasis=    30 RedAO= T EigKep=  1.79D-01  NBF=    14     2     3    11
 NBsUse=    30 1.00D-06 EigRej= -1.00D+00 NBFU=    14     2     3    11
 Leave Link  302 at Sun Jun 28 00:25:49 2026, MaxMem=   104857600 cpu:               0.0 elap:               0.0
 (Enter /Users/vincenzobarone/gdv_j32p/gdv/l303.exe)
 DipDrv:  MaxL=1.
 Leave Link  303 at Sun Jun 28 00:25:49 2026, MaxMem=   104857600 cpu:               0.0 elap:               0.0
 (Enter /Users/vincenzobarone/gdv_j32p/gdv/l401.exe)
 ExpMin= 1.69D-01 ExpMax= 9.91D+01 ExpMxC= 9.91D+01 IAcc=3 Grid=UltraFine AccDes= 0.00D+00
 Harris functional with IExCor= 2005 and Grid=UltraFine diagonalized for initial guess.
 HarFok:  IExCor=    2005 AccDes= 0.00D+00 Grid=UltraFine IDoV= 1 UseB2=F ITyADJ=14 ICtDFT=  3500011
 FoFCou: FMM=F IPFlag=           0 FMFlag=      100000 FMFlg1=           0
         NFxFlg=           0 DoJE=T BraDBF=F KetDBF=T FulRan=T
         wScrn=  0.000000 ICntrl=       500 IOpCl=  0 I1Cent=   200000004 NGrid=           0
         NMat0=    1 NMatS0=      1 NMatT0=    0 NMatD0=    1 NMtDS0=    0 NMtDT0=    0
 Petite list used in FoFCou.
 Harris En= -206.482844254214    
 JPrj=0 DoOrth=F DoCkMO=F.
 Initial guess orbital symmetries:
       Occupied  (A1) (B2) (A1) (B2) (A1) (A1) (A1) (B2) (A1) (B2)
                 (A1) (A1) (B2) (B2) (A1) (B1) (B1) (A2)
       Virtual   (B1) (A2) (A1) (B2) (A1) (A1) (B2) (A1) (B2) (B2)
                 (A1) (B2)
 The electronic state of the initial guess is 1-A1.
 Leave Link  401 at Sun Jun 28 00:25:49 2026, MaxMem=   104857600 cpu:               0.1 elap:               0.1
 (Enter /Users/vincenzobarone/gdv_j32p/gdv/l502.exe)
 Keep R1 ints in memory in symmetry-blocked form, NReq=927485.
 FoFCou: FMM=F IPFlag=           0 FMFlag=           0 FMFlg1=           0
         NFxFlg=           0 DoJE=F BraDBF=F KetDBF=F FulRan=T
         wScrn=  0.000000 ICntrl=       600 IOpCl=  0 I1Cent=           0 NGrid=           0
         NMat0=    1 NMatS0=    465 NMatT0=    0 NMatD0=    1 NMtDS0=    0 NMtDT0=    0
 Petite list used in FoFCou.
 Closed shell SCF:
 Using DIIS extrapolation, IDIIS=  1040.
 NGot=   104857600 LenX=   104818993 LenY=   104817652
 Requested convergence on RMS density matrix=1.00D-08 within  48 cycles.
 Requested convergence on MAX density matrix=1.00D-06.
 Requested convergence on             energy=1.00D-06.
 No special actions if energy rises.

 Cycle   1  Pass 1  IDiag  1:
 E= -206.114766701331    
 DIIS: error= 5.34D-02 at cycle   1 NSaved=   1.
 NSaved= 1 IEnMin= 1 EnMin= -206.114766701331     IErMin= 1 ErrMin= 5.34D-02
 ErrMax= 5.34D-02  0.00D+00 EMaxC= 1.00D-01 BMatC= 5.57D-02 BMatP= 5.57D-02
 Rises=F IDIUse=3 WtCom= 4.66D-01 WtEn= 5.34D-01
 Coeff-Com:  0.100D+01
 Coeff-En:   0.100D+01
 Coeff:      0.100D+01
 Gap=     0.513 Goal=   None    Shift=    0.000
 GapD=    0.513 DampG=2.000 DampE=0.500 DampFc=1.0000 IDamp=-1.
 RMSDP=1.60D-02 MaxDP=1.44D-01              OVMax= 0.00D+00

 Cycle   2  Pass 1  IDiag  1:
 E= -206.212570871051     Delta-E=       -0.097804169719 Rises=F Damp=F AM=F Ri=F Fa=F
 DIIS: error= 1.60D-02 at cycle   2 NSaved=   2.
 NSaved= 2 IEnMin= 2 EnMin= -206.212570871051     IErMin= 2 ErrMin= 1.60D-02
 ErrMax= 1.60D-02  0.00D+00 EMaxC= 1.00D-01 BMatC= 5.38D-03 BMatP= 5.57D-02
 Rises=F IDIUse=3 WtCom= 8.40D-01 WtEn= 1.60D-01
 Coeff-Com:  0.160D+00 0.840D+00
 Coeff-En:   0.000D+00 0.100D+01
 Coeff:      0.134D+00 0.866D+00
 Gap=     0.562 Goal=   None    Shift=    0.000
 RMSDP=5.45D-03 MaxDP=3.93D-02 DE=-9.78D-02 OVMax= 0.00D+00

 Cycle   3  Pass 1  IDiag  1:
 E= -206.223256053006     Delta-E=       -0.010685181956 Rises=F Damp=F AM=F Ri=F Fa=F
 DIIS: error= 9.26D-03 at cycle   3 NSaved=   3.
 NSaved= 3 IEnMin= 3 EnMin= -206.223256053006     IErMin= 3 ErrMin= 9.26D-03
 ErrMax= 9.26D-03  0.00D+00 EMaxC= 1.00D-01 BMatC= 5.32D-04 BMatP= 5.38D-03
 Rises=F IDIUse=3 WtCom= 9.11D-01 WtEn= 8.92D-02
 Coeff-Com: -0.160D-01 0.209D+00 0.807D+00
 Coeff-En:   0.000D+00 0.000D+00 0.100D+01
 Coeff:     -0.146D-01 0.191D+00 0.824D+00
 Gap=     0.558 Goal=   None    Shift=    0.000
 RMSDP=1.69D-03 MaxDP=1.90D-02 DE=-1.07D-02 OVMax= 0.00D+00

 Cycle   4  Pass 1  IDiag  1:
 E= -206.224793354022     Delta-E=       -0.001537301016 Rises=F Damp=F AM=F Ri=F Fa=F
 DIIS: error= 1.46D-03 at cycle   4 NSaved=   4.
 NSaved= 4 IEnMin= 4 EnMin= -206.224793354022     IErMin= 4 ErrMin= 1.46D-03
 ErrMax= 1.46D-03  0.00D+00 EMaxC= 1.00D-01 BMatC= 2.21D-05 BMatP= 5.32D-04
 Rises=F IDIUse=3 WtCom= 9.94D-01 WtEn= 5.56D-03
 Coeff-Com: -0.667D-03-0.571D-01-0.102D-01 0.107D+01
 Coeff-En:   0.000D+00 0.000D+00 0.000D+00 0.100D+01
 Coeff:     -0.663D-03-0.568D-01-0.101D-01 0.107D+01
 Gap=     0.559 Goal=   None    Shift=    0.000
 RMSDP=4.00D-04 MaxDP=4.25D-03 DE=-1.54D-03 OVMax= 0.00D+00

 Cycle   5  Pass 1  IDiag  1:
 E= -206.224890660963     Delta-E=       -0.000097306941 Rises=F Damp=F AM=F Ri=F Fa=F
 DIIS: error= 5.71D-04 at cycle   5 NSaved=   5.
 NSaved= 5 IEnMin= 5 EnMin= -206.224890660963     IErMin= 5 ErrMin= 5.71D-04
 ErrMax= 5.71D-04  0.00D+00 EMaxC= 1.00D-01 BMatC= 3.02D-06 BMatP= 2.21D-05
 Rises=F IDIUse=3 WtCom= 9.99D-01 WtEn= 1.37D-03
 Coeff-Com:  0.244D-02-0.301D-01-0.919D-01-0.612D-01 0.118D+01
 Coeff-En:   0.000D+00 0.000D+00 0.000D+00 0.000D+00 0.100D+01
 Coeff:      0.244D-02-0.301D-01-0.918D-01-0.612D-01 0.118D+01
 Gap=     0.559 Goal=   None    Shift=    0.000
 RMSDP=2.27D-04 MaxDP=2.63D-03 DE=-9.73D-05 OVMax= 0.00D+00

 Cycle   6  Pass 1  IDiag  1:
 E= -206.224911254214     Delta-E=       -0.000020593252 Rises=F Damp=F AM=F Ri=F Fa=F
 DIIS: error= 2.05D-04 at cycle   6 NSaved=   6.
 NSaved= 6 IEnMin= 6 EnMin= -206.224911254214     IErMin= 6 ErrMin= 2.05D-04
 ErrMax= 2.05D-04  0.00D+00 EMaxC= 1.00D-01 BMatC= 2.46D-07 BMatP= 3.02D-06
 Rises=F IDIUse=3 WtCom= 1.00D+00 WtEn= 1.59D-04
 Coeff-Com: -0.813D-04 0.981D-02 0.138D-01-0.131D+00-0.196D+00 0.130D+01
 Coeff-En:   0.000D+00 0.000D+00 0.000D+00 0.000D+00 0.000D+00 0.100D+01
 Coeff:     -0.813D-04 0.981D-02 0.138D-01-0.131D+00-0.196D+00 0.130D+01
 Gap=     0.559 Goal=   None    Shift=    0.000
 RMSDP=9.89D-05 MaxDP=1.21D-03 DE=-2.06D-05 OVMax= 0.00D+00

 Cycle   7  Pass 1  IDiag  1:
 E= -206.224913733758     Delta-E=       -0.000002479544 Rises=F Damp=F AM=F Ri=F Fa=F
 DIIS: error= 2.40D-05 at cycle   7 NSaved=   7.
 NSaved= 7 IEnMin= 7 EnMin= -206.224913733758     IErMin= 7 ErrMin= 2.40D-05
 ErrMax= 2.40D-05  0.00D+00 EMaxC= 1.00D-01 BMatC= 7.62D-09 BMatP= 2.46D-07
 Rises=F IDIUse=1 WtCom= 1.00D+00 WtEn= 0.00D+00
 Coeff-Com: -0.790D-04-0.189D-03 0.140D-02 0.305D-01-0.459D-01-0.182D+00
 Coeff-Com:  0.120D+01
 Coeff:     -0.790D-04-0.189D-03 0.140D-02 0.305D-01-0.459D-01-0.182D+00
 Coeff:      0.120D+01
 Gap=     0.559 Goal=   None    Shift=    0.000
 RMSDP=1.34D-05 MaxDP=1.20D-04 DE=-2.48D-06 OVMax= 0.00D+00

 Cycle   8  Pass 1  IDiag  1:
 E= -206.224913784102     Delta-E=       -0.000000050343 Rises=F Damp=F AM=F Ri=F Fa=F
 DIIS: error= 4.67D-06 at cycle   8 NSaved=   8.
 NSaved= 8 IEnMin= 8 EnMin= -206.224913784102     IErMin= 8 ErrMin= 4.67D-06
 ErrMax= 4.67D-06  0.00D+00 EMaxC= 1.00D-01 BMatC= 3.80D-10 BMatP= 7.62D-09
 Rises=F IDIUse=1 WtCom= 1.00D+00 WtEn= 0.00D+00
 Coeff-Com:  0.425D-04-0.319D-04-0.134D-02-0.123D-01 0.216D-01 0.884D-01
 Coeff-Com: -0.673D+00 0.158D+01
 Coeff:      0.425D-04-0.319D-04-0.134D-02-0.123D-01 0.216D-01 0.884D-01
 Coeff:     -0.673D+00 0.158D+01
 Gap=     0.559 Goal=   None    Shift=    0.000
 RMSDP=2.62D-06 MaxDP=1.72D-05 DE=-5.03D-08 OVMax= 0.00D+00

 Cycle   9  Pass 1  IDiag  1:
 E= -206.224913786148     Delta-E=       -0.000000002046 Rises=F Damp=F AM=F Ri=F Fa=F
 DIIS: error= 8.38D-07 at cycle   9 NSaved=   9.
 NSaved= 9 IEnMin= 9 EnMin= -206.224913786148     IErMin= 9 ErrMin= 8.38D-07
 ErrMax= 8.38D-07  0.00D+00 EMaxC= 1.00D-01 BMatC= 9.20D-12 BMatP= 3.80D-10
 Rises=F IDIUse=1 WtCom= 1.00D+00 WtEn= 0.00D+00
 Coeff-Com: -0.140D-04 0.209D-04 0.425D-03 0.419D-02-0.799D-02-0.280D-01
 Coeff-Com:  0.230D+00-0.634D+00 0.144D+01
 Coeff:     -0.140D-04 0.209D-04 0.425D-03 0.419D-02-0.799D-02-0.280D-01
 Coeff:      0.230D+00-0.634D+00 0.144D+01
 Gap=     0.559 Goal=   None    Shift=    0.000
 RMSDP=3.97D-07 MaxDP=2.62D-06 DE=-2.05D-09 OVMax= 0.00D+00

 Cycle  10  Pass 1  IDiag  1:
 E= -206.224913786189     Delta-E=       -0.000000000041 Rises=F Damp=F AM=F Ri=F Fa=F
 DIIS: error= 8.80D-08 at cycle  10 NSaved=  10.
 NSaved=10 IEnMin=10 EnMin= -206.224913786189     IErMin=10 ErrMin= 8.80D-08
 ErrMax= 8.80D-08  0.00D+00 EMaxC= 1.00D-01 BMatC= 6.65D-14 BMatP= 9.20D-12
 Rises=F IDIUse=1 WtCom= 1.00D+00 WtEn= 0.00D+00
 Coeff-Com:  0.373D-05-0.692D-05-0.114D-03-0.108D-02 0.205D-02 0.752D-02
 Coeff-Com: -0.616D-01 0.172D+00-0.432D+00 0.131D+01
 Coeff:      0.373D-05-0.692D-05-0.114D-03-0.108D-02 0.205D-02 0.752D-02
 Coeff:     -0.616D-01 0.172D+00-0.432D+00 0.131D+01
 Gap=     0.559 Goal=   None    Shift=    0.000
 RMSDP=2.92D-08 MaxDP=1.62D-07 DE=-4.12D-11 OVMax= 0.00D+00

 Cycle  11  Pass 1  IDiag  1:
 E= -206.224913786191     Delta-E=       -0.000000000001 Rises=F Damp=F AM=F Ri=F Fa=F
 DIIS: error= 1.78D-08 at cycle  11 NSaved=  11.
 NSaved=11 IEnMin=11 EnMin= -206.224913786191     IErMin=11 ErrMin= 1.78D-08
 ErrMax= 1.78D-08  0.00D+00 EMaxC= 1.00D-01 BMatC= 1.63D-15 BMatP= 6.65D-14
 Rises=F IDIUse=1 WtCom= 1.00D+00 WtEn= 0.00D+00
 Coeff-Com: -0.464D-06 0.113D-05 0.136D-04 0.128D-03-0.235D-03-0.923D-03
 Coeff-Com:  0.763D-02-0.213D-01 0.586D-01-0.299D+00 0.126D+01
 Coeff:     -0.464D-06 0.113D-05 0.136D-04 0.128D-03-0.235D-03-0.923D-03
 Coeff:      0.763D-02-0.213D-01 0.586D-01-0.299D+00 0.126D+01
 Gap=     0.559 Goal=   None    Shift=    0.000
 RMSDP=6.04D-09 MaxDP=6.65D-08 DE=-1.42D-12 OVMax= 0.00D+00

 SCF Done:  E(RHF) =  -206.224913786     A.U. after   11 cycles
            NFock= 11  Conv=0.60D-08     -V/T= 2.0091
 KE=         204.365738 PE=        -803.543291 EE=         231.860112
 Leave Link  502 at Sun Jun 28 00:25:49 2026, MaxMem=   104857600 cpu:               0.0 elap:               0.0
 (Enter /Users/vincenzobarone/gdv_j32p/gdv/l508.exe)
 QCSCF skips out because SCF is already converged.
 Leave Link  508 at Sun Jun 28 00:25:49 2026, MaxMem=   104857600 cpu:               0.0 elap:               0.0
 (Enter /Users/vincenzobarone/gdv_j32p/gdv/l601.exe)
 Copying SCF densities to generalized density rwf, IOpCl= 0 IROHF=0.
 
 **********************************************************************
 
               Population analysis using the SCF Density.
 
 **********************************************************************
 
 Orbital symmetries:
       Occupied  (A1) (B2) (A1) (A1) (B2) (A1) (A1) (B2) (A1) (B2)
                 (A1) (A1) (B2) (B1) (B2) (A1) (B1) (A2)
       Virtual   (B1) (A2) (A1) (A1) (B2) (A1) (B2) (B2) (A1) (B2)
                 (A1) (B2)
 The electronic state is 1-A1.
 Alpha  occ. eigenvalues --      -15.40841     -11.03838     -11.03816     -10.98671     -10.98658
 Alpha  occ. eigenvalues --       -1.22600      -0.97662      -0.91384      -0.73425      -0.70630
 Alpha  occ. eigenvalues --       -0.68329      -0.52945      -0.52212      -0.51800      -0.48412
 Alpha  occ. eigenvalues --       -0.46108      -0.28028      -0.23507
 Alpha virt. eigenvalues --        0.32393       0.40827       0.56917       0.64701       0.68097
 Alpha virt. eigenvalues --        0.69863       0.71933       0.77895       0.80082       0.97087
 Alpha virt. eigenvalues --        1.05242       1.14475
          Condensed to atoms (all electrons):
               1          2          3          4          5          6
     1  C    4.818304   0.478165   0.551863   0.395181  -0.053581  -0.019201
     2  C    0.478165   4.818304  -0.053581  -0.019201   0.551863   0.395181
     3  C    0.551863  -0.053581   4.783207  -0.021913  -0.068132   0.001549
     4  H    0.395181  -0.019201  -0.021913   0.589679   0.001549  -0.001466
     5  C   -0.053581   0.551863  -0.068132   0.001549   4.783207  -0.021913
     6  H   -0.019201   0.395181   0.001549  -0.001466  -0.021913   0.589679
     7  N   -0.054847  -0.054847   0.417356   0.001208   0.417356   0.001208
     8  H   -0.018951   0.001506   0.395542  -0.001331   0.001844  -0.000026
     9  H    0.002274   0.002274  -0.027429  -0.000046  -0.027429  -0.000046
    10  H    0.001506  -0.018951   0.001844  -0.000026   0.395542  -0.001331
               7          8          9         10
     1  C   -0.054847  -0.018951   0.002274   0.001506
     2  C   -0.054847   0.001506   0.002274  -0.018951
     3  C    0.417356   0.395542  -0.027429   0.001844
     4  H    0.001208  -0.001331  -0.000046  -0.000026
     5  C    0.417356   0.001844  -0.027429   0.395542
     6  H    0.001208  -0.000026  -0.000046  -0.001331
     7  N    6.264475  -0.020583   0.356484  -0.020583
     8  H   -0.020583   0.576457  -0.002007  -0.000036
     9  H    0.356484  -0.002007   0.476568  -0.002007
    10  H   -0.020583  -0.000036  -0.002007   0.576457
 Mulliken charges:
               1
     1  C   -0.100714
     2  C   -0.100714
     3  C    0.019695
     4  H    0.056366
     5  C    0.019695
     6  H    0.056366
     7  N   -0.307227
     8  H    0.067584
     9  H    0.221364
    10  H    0.067584
 Sum of Mulliken charges=   0.00000
 Mulliken charges with hydrogens summed into heavy atoms:
               1
     1  C   -0.044348
     2  C   -0.044348
     3  C    0.087279
     5  C    0.087279
     7  N   -0.085862
 Electronic spatial extent (au):  <R**2>=            301.2384
 Charge=              0.0000 electrons
 Dipole moment (field-independent basis, Debye):
    X=              0.0000    Y=              0.0000    Z=              1.8930  Tot=              1.8930
 Quadrupole moment (field-independent basis, Debye-Ang):
   XX=            -29.6797   YY=            -25.9079   ZZ=            -23.3438
   XY=              0.0000   XZ=              0.0000   YZ=              0.0000
 Traceless Quadrupole moment (field-independent basis, Debye-Ang):
   XX=             -3.3693   YY=              0.4026   ZZ=              2.9667
   XY=              0.0000   XZ=              0.0000   YZ=              0.0000
 Octapole moment (field-independent basis, Debye-Ang**2):
  XXX=              0.0000  YYY=              0.0000  ZZZ=             11.5935  XYY=              0.0000
  XXY=              0.0000  XXZ=              1.4711  XZZ=              0.0000  YZZ=              0.0000
  YYZ=              2.6475  XYZ=              0.0000
 Hexadecapole moment (field-independent basis, Debye-Ang**3):
 XXXX=            -23.2241 YYYY=           -167.9089 ZZZZ=           -145.2455 XXXY=              0.0000
 XXXZ=              0.0000 YYYX=              0.0000 YYYZ=              0.0000 ZZZX=              0.0000
 ZZZY=              0.0000 XXYY=            -36.1217 XXZZ=            -34.4904 YYZZ=            -53.2033
 XXYZ=              0.0000 YYXZ=              0.0000 ZZXY=              0.0000
 N-N=         161.092527 E-N=        -803.543291  KE=         204.365738
 Symmetry A1   KE=         122.306681
 Symmetry A2   KE=           2.839593
 Symmetry B1   KE=           5.725839
 Symmetry B2   KE=          73.493625
 No NMR shielding tensors so no spin-rotation constants.
 Leave Link  601 at Sun Jun 28 00:25:49 2026, MaxMem=   104857600 cpu:               0.0 elap:               0.0
 (Enter /Users/vincenzobarone/gdv_j32p/gdv/l701.exe)
 ... and contract with generalized density number  0.
 Compute integral first derivatives.
 Leave Link  701 at Sun Jun 28 00:25:49 2026, MaxMem=   104857600 cpu:               0.0 elap:               0.0
 (Enter /Users/vincenzobarone/gdv_j32p/gdv/l702.exe)
 L702 exits ... SP integral derivatives will be done elsewhere.
 Leave Link  702 at Sun Jun 28 00:25:49 2026, MaxMem=   104857600 cpu:               0.0 elap:               0.0
 (Enter /Users/vincenzobarone/gdv_j32p/gdv/l703.exe)
 Integral derivatives from FoFJK, PRISM(SPDF).
 Compute integral first derivatives, UseDBF=F ICtDFT=           0.
 Calling FoFJK, ICntrl=      2127 FMM=F ISym2X=1 I1Cent= 0 IOpClX= 0 NMat=1 NMatS=1 NMatT=0.
 FoFJK:  IHMeth= 1 ICntrl=    2127 DoSepK=F KAlg= 0 I1Cent=           0 FoldK=F
 IRaf=         0 NMat=       1 IRICut=       1 DoRegI=T DoRafI=F ISym2E= 1 IDoP0=0 IntGTp=1.
 FoFCou: FMM=F IPFlag=           0 FMFlag=      100000 FMFlg1=         800
         NFxFlg=           0 DoJE=F BraDBF=F KetDBF=F FulRan=T
         wScrn=  0.000000 ICntrl=      2127 IOpCl=  0 I1Cent=           0 NGrid=           0
         NMat0=    1 NMatS0=      1 NMatT0=    0 NMatD0=    1 NMtDS0=    0 NMtDT0=    0
 Petite list used in FoFCou.
 Leave Link  703 at Sun Jun 28 00:25:49 2026, MaxMem=   104857600 cpu:               0.0 elap:               0.0
 (Enter /Users/vincenzobarone/gdv_j32p/gdv/l716.exe)
 Dipole        =-4.03379806D-17-4.44089210D-16 7.44750023D-01
 ***** Axes restored to original set *****
 -------------------------------------------------------------------
 Center     Atomic                   Forces (Hartrees/Bohr)
 Number     Number              X              Y              Z
 -------------------------------------------------------------------
      1        6          -0.024834469    0.007437495    0.000000000
      2        6          -0.024834469   -0.007437495    0.000000000
      3        6           0.036150153    0.003733329    0.000000000
      4        1          -0.000416233   -0.000998597    0.000000000
      5        6           0.036150153   -0.003733329    0.000000000
      6        1          -0.000416233    0.000998597    0.000000000
      7        7           0.001120337    0.000000000    0.000000000
      8        1          -0.000955438    0.001565209    0.000000000
      9        1          -0.021008364    0.000000000    0.000000000
     10        1          -0.000955438   -0.001565209    0.000000000
 -------------------------------------------------------------------
 Cartesian Forces:  Max     0.036150153 RMS     0.012161894
 Leave Link  716 at Sun Jun 28 00:25:49 2026, MaxMem=   104857600 cpu:               0.0 elap:               0.0
 (Enter /Users/vincenzobarone/gdv_j32p/gdv/l103.exe)

 GradGradGradGradGradGradGradGradGradGradGradGradGradGradGradGradGradGrad
 Berny optimization.
 FormGI is forming the generalized inverse of G from B-inverse, IUseBI=4.
 NTrRot=    -1 NTRed=    24 NAtoms=    10 NSkip=     0 NRank=    24 IsLin=F EigSml=4.0893D-02
 Internal  Forces:  Max     0.037546377 RMS     0.010055578
 FCEstG is called.
 FormGI is forming the generalized inverse of G from B-inverse, IUseBI=4.
 Search for a local minimum.
 Step number     1 out of a maximum of    34
 All quantities printed in internal units (Hartrees-Bohrs-Radians)
 RMS Force = .16421D-01 SwitMx=.10000D-02 MixMth= 1
 Mixed Optimization -- RFO/linear search
 Second derivative matrix not updated -- first step.
 ITU=  0
     Eigenvalues ---    0.16000   0.16000   0.33002   0.36199   0.36299
     Eigenvalues ---    0.43662   0.47058   0.49865   0.558291000.00000
     Eigenvalues --- 1000.000001000.000001000.000001000.000001000.00000
     Eigenvalues --- 1000.000001000.000001000.000001000.000001000.00000
     Eigenvalues --- 1000.000001000.000001000.000001000.00000
 RFO step:  Lambda=-4.68297383D-03 EMin= 1.60000000D-01
 Linear search not attempted -- first point.
 GrdOpt: GIC=T ITstSp=10 NP=   1 DidLin=F DidDIS=F IRisen=  0
         ISwap=1 XLin= 0.000 DXMaxT= 0.300 DidEig=F Rises=F
 Iteration  1 RMS(Cart)=  0.01990296 RMS(Int)=  0.00013272
 Iteration  2 RMS(Cart)=  0.00014873 RMS(Int)=  0.00000001
 Iteration  3 RMS(Cart)=  0.00000002 RMS(Int)=  0.00000000
 Fixing frozen coordinates.
 Iteration  1 RMS(Cart)=  0.00000000 RMS(Int)=  0.00000000
 ClnCor:  largest displacement from symmetrization is 9.03D-15 for atom     6.
 Variable       Old X    -DE/DX   Delta X   Delta X   Delta X     New X
                                 (Linear)    (Quad)   (Total)
 A1Str001     2.68984  -0.00177   0.00000   0.00084   0.00084   2.69068
 A1Str002     3.67848  -0.03755   0.00000  -0.07297  -0.07297   3.60552
 A1Str003     2.88177  -0.00132   0.00000  -0.00360  -0.00360   2.87817
 A1Str004     3.66396   0.02371   0.00000   0.04147   0.04147   3.70543
 A1Str005     2.87958   0.00257   0.00000   0.00699   0.00699   2.88657
 A1Str006     1.89656   0.02101   0.00000   0.04420   0.04420   1.94076
 B2Str001     0.00000   0.00000   0.00000   0.00000   0.00000   0.00000
 B2Str002     0.00000   0.00000   0.00000   0.00000   0.00000   0.00000
 B2Str003     0.00000   0.00000   0.00000   0.00000   0.00000   0.00000
 B2Str004     0.00000   0.00000   0.00000   0.00000   0.00000   0.00000
 A1Bend00    -0.02222   0.00112   0.00000   0.00678   0.00678  -0.01545
 A1Bend00    -0.17235  -0.00050   0.00000  -0.00302  -0.00302  -0.17537
 B2Bend00     0.00000   0.00000   0.00000   0.00000   0.00000   0.00000
 B2Bend00     0.00000   0.00000   0.00000   0.00000   0.00000   0.00000
 B2Bend00     0.00000   0.00000   0.00000   0.00000   0.00000   0.00000
 A1CyBe00     0.02250  -0.00066   0.00000  -0.00178  -0.00178   0.02072
 B2CyBe00     0.00000   0.00000   0.00000   0.00000   0.00000   0.00000
 A2RPck00     0.00000   0.00000   0.00000   0.00000   0.00000   0.00000
 B1RPck00     0.00000   0.00000   0.00000   0.00000   0.00000   0.00000
 A2OuPl00     0.00000   0.00000   0.00000   0.00000   0.00000   0.00000
 A2OuPl00     0.00000   0.00000   0.00000   0.00000   0.00000   0.00000
 B1OuPl00     0.00000   0.00000   0.00000   0.00000   0.00000   0.00000
 B1OuPl00     0.00000   0.00000   0.00000   0.00000   0.00000   0.00000
 B1OuPl00     0.00000   0.00000   0.00000   0.00000   0.00000   0.00000
         Item               Value     Threshold  Converged?
 Maximum Force            0.037546     0.000450     NO 
 RMS     Force            0.016421     0.000300     NO 
 Maximum Displacement     0.047660     0.001800     NO 
 RMS     Displacement     0.022303     0.001200     NO 
 Predicted change in Energy=-2.362835D-03
 Lowest energy point so far.  Saving SCF results.
 GradGradGradGradGradGradGradGradGradGradGradGradGradGradGradGradGradGrad

 Leave Link  103 at Sun Jun 28 00:25:49 2026, MaxMem=   104857600 cpu:               0.0 elap:               0.0
 (Enter /Users/vincenzobarone/gdv_j32p/gdv/l202.exe)
                          Input orientation:                          
 ---------------------------------------------------------------------
 Center     Atomic      Atomic             Coordinates (Angstroms)
 Number     Number       Type             X           Y           Z
 ---------------------------------------------------------------------
      1          6           0        0.967564    0.711924    0.000000
      2          6           0        0.967564   -0.711924    0.000000
      3          6           0       -0.315483    1.128987    0.000000
      4          1           0        1.833974    1.351606    0.000000
      5          6           0       -0.315483   -1.128987    0.000000
      6          1           0        1.833974   -1.351606    0.000000
      7          7           0       -1.120350    0.000000    0.000000
      8          1           0       -0.742332    2.121177    0.000000
      9          1           0       -2.147356    0.000000    0.000000
     10          1           0       -0.742332   -2.121177    0.000000
 ---------------------------------------------------------------------
                    Distance matrix (angstroms):
                    1          2          3          4          5
     1  C    0.000000
     2  C    1.423848   0.000000
     3  C    1.349130   2.243917   0.000000
     4  H    1.076967   2.238040   2.160954   0.000000
     5  C    2.243917   1.349130   2.257974   3.282301   0.000000
     6  H    2.238040   1.076967   3.282301   2.703211   2.160954
     7  N    2.205951   2.205951   1.386515   3.248826   1.386515
     8  H    2.215793   3.309110   1.080112   2.688790   3.278073
     9  H    3.195241   3.195241   2.151830   4.204501   2.151830
    10  H    3.309110   2.215793   3.278073   4.324069   1.080112
                    6          7          8          9         10
     6  H    0.000000
     7  N    3.248826   0.000000
     8  H    4.324069   2.154598   0.000000
     9  H    4.204501   1.027006   2.544305   0.000000
    10  H    2.688790   2.154598   4.242354   2.544305   0.000000
 Stoichiometry    C4H5N
 Framework group  C2V[C2(NH),SGV(C4H4)]
 Deg. of freedom     9
 Full point group                 C2V     NOp   4
 RotChk:  IX=0 Diff= 5.03D-16
 Largest Abelian subgroup         C2V     NOp   4
 Largest concise Abelian subgroup C2      NOp   2
                         Standard orientation:                         
 ---------------------------------------------------------------------
 Center     Atomic      Atomic             Coordinates (Angstroms)
 Number     Number       Type             X           Y           Z
 ---------------------------------------------------------------------
      1          6           0        0.000000    0.711924   -0.967052
      2          6           0        0.000000   -0.711924   -0.967052
      3          6           0        0.000000    1.128987    0.315995
      4          1           0        0.000000    1.351606   -1.833461
      5          6           0        0.000000   -1.128987    0.315995
      6          1           0        0.000000   -1.351606   -1.833461
      7          7           0        0.000000    0.000000    1.120863
      8          1           0        0.000000    2.121177    0.742844
      9          1           0        0.000000    0.000000    2.147869
     10          1           0        0.000000   -2.121177    0.742844
 ---------------------------------------------------------------------
 Rotational constants (GHZ):           9.1935581           9.1049113           4.5745100
 Leave Link  202 at Sun Jun 28 00:25:49 2026, MaxMem=   104857600 cpu:               0.0 elap:               0.0
 (Enter /Users/vincenzobarone/gdv_j32p/gdv/l301.exe)
 Standard basis: STO-3G (5D, 7F)
 Ernie: Thresh=  0.10000D-02 Tol=  0.10000D-05 Strict=F.
 There are    14 symmetry adapted cartesian basis functions of A1  symmetry.
 There are     2 symmetry adapted cartesian basis functions of A2  symmetry.
 There are     3 symmetry adapted cartesian basis functions of B1  symmetry.
 There are    11 symmetry adapted cartesian basis functions of B2  symmetry.
 There are    14 symmetry adapted basis functions of A1  symmetry.
 There are     2 symmetry adapted basis functions of A2  symmetry.
 There are     3 symmetry adapted basis functions of B1  symmetry.
 There are    11 symmetry adapted basis functions of B2  symmetry.
    30 basis functions,    90 primitive gaussians,    30 cartesian basis functions
    18 alpha electrons       18 beta electrons
       nuclear repulsion energy       161.3455164473 Hartrees.
 IExCor=         0 DFT=F Ex=HF Corr=None N6=None ScaHFX=  1.000000
 ScaDFX=  1.000000  1.000000  1.000000  1.000000  1.000000  0.000000
 ScaDFX=  0.000000  0.000000  0.000000  0.000000  0.000000  0.000000
 Grid=UltraFine IRanWt=     -1 IRanGd=            0 ICorTp=0 IEDCtl=  2004
 NAtoms=   10 NActive=   10 NUniq=    6 SFac= 2.78D+00 NAtFMM=   60 NAOKFM=F Big=F
 Integral buffers will be    131072 words long.
 Raffenetti 1 integral format.
 Two-electron integral symmetry is turned on.
 Leave Link  301 at Sun Jun 28 00:25:49 2026, MaxMem=   104857600 cpu:               0.0 elap:               0.0
 (Enter /Users/vincenzobarone/gdv_j32p/gdv/l302.exe)
 NPDir=0 NMtPBC=     1 NCelOv=     1 NCel=       1 NClECP=     1 NCelD=      1
         NCelK=      1 NCelE2=     1 NClLst=     1 CellRange=     0.0.
 One-electron integrals computed using PRISM.
 One-electron integral symmetry used in STVInt
 NBasis=    30 RedAO= T EigKep=  1.71D-01  NBF=    14     2     3    11
 NBsUse=    30 1.00D-06 EigRej= -1.00D+00 NBFU=    14     2     3    11
 Leave Link  302 at Sun Jun 28 00:25:49 2026, MaxMem=   104857600 cpu:               0.0 elap:               0.0
 (Enter /Users/vincenzobarone/gdv_j32p/gdv/l303.exe)
 DipDrv:  MaxL=1.
 Leave Link  303 at Sun Jun 28 00:25:49 2026, MaxMem=   104857600 cpu:               0.0 elap:               0.0
 (Enter /Users/vincenzobarone/gdv_j32p/gdv/l401.exe)
 Initial guess from the checkpoint file:  "/Users/vincenzobarone/Documents/GAUSSIAN_SCRATCH/Gau-58204.chk"
 B after Tr=     0.000000    0.000000    0.000000
         Rot=    1.000000    0.000000    0.000000    0.000000 Ang=   0.00 deg.
 AO Guess basis will be translated and rotated to current coordinates.
 JPrj=2 DoOrth=T DoCkMO=T.
 Initial guess orbital symmetries:
       Occupied  (A1) (B2) (A1) (A1) (B2) (A1) (A1) (B2) (A1) (B2)
                 (A1) (A1) (B2) (B1) (B2) (A1) (B1) (A2)
       Virtual   (B1) (A2) (A1) (A1) (B2) (A1) (B2) (B2) (A1) (B2)
                 (A1) (B2)
 The electronic state of the initial guess is 1-A1.
 Generating alternative initial guess.
 ExpMin= 1.69D-01 ExpMax= 9.91D+01 ExpMxC= 9.91D+01 IAcc=3 Grid=UltraFine AccDes= 0.00D+00
 Harris functional with IExCor= 2005 and Grid=UltraFine diagonalized for initial guess.
 HarFok:  IExCor=    2005 AccDes= 0.00D+00 Grid=UltraFine IDoV= 1 UseB2=F ITyADJ=14 ICtDFT=  3500011
 FoFCou: FMM=F IPFlag=           0 FMFlag=      100000 FMFlg1=           0
         NFxFlg=           0 DoJE=T BraDBF=F KetDBF=T FulRan=T
         wScrn=  0.000000 ICntrl=       500 IOpCl=  0 I1Cent=   200000004 NGrid=           0
         NMat0=    1 NMatS0=      1 NMatT0=    0 NMatD0=    1 NMtDS0=    0 NMtDT0=    0
 Petite list used in FoFCou.
 Harris En= -206.485393899252    
 Leave Link  401 at Sun Jun 28 00:25:49 2026, MaxMem=   104857600 cpu:               0.1 elap:               0.1
 (Enter /Users/vincenzobarone/gdv_j32p/gdv/l502.exe)
 Keep R1 ints in memory in symmetry-blocked form, NReq=927485.
 FoFCou: FMM=F IPFlag=           0 FMFlag=           0 FMFlg1=           0
         NFxFlg=           0 DoJE=F BraDBF=F KetDBF=F FulRan=T
         wScrn=  0.000000 ICntrl=       600 IOpCl=  0 I1Cent=           0 NGrid=           0
         NMat0=    1 NMatS0=    465 NMatT0=    0 NMatD0=    1 NMtDS0=    0 NMtDT0=    0
 Petite list used in FoFCou.
 Closed shell SCF:
 Using DIIS extrapolation, IDIIS=  1040.
 NGot=   104857600 LenX=   104818993 LenY=   104817652
 Requested convergence on RMS density matrix=1.00D-08 within  48 cycles.
 Requested convergence on MAX density matrix=1.00D-06.
 Requested convergence on             energy=1.00D-06.
 No special actions if energy rises.

 Cycle   1  Pass 1  IDiag  1:
 E= -206.226347107996    
 DIIS: error= 2.58D-03 at cycle   1 NSaved=   1.
 NSaved= 1 IEnMin= 1 EnMin= -206.226347107996     IErMin= 1 ErrMin= 2.58D-03
 ErrMax= 2.58D-03  0.00D+00 EMaxC= 1.00D-01 BMatC= 1.38D-04 BMatP= 1.38D-04
 Rises=F IDIUse=3 WtCom= 9.87D-01 WtEn= 1.31D-02
 Coeff-Com:  0.100D+01
 Coeff-En:   0.100D+01
 Coeff:      0.100D+01
 Gap=     0.570 Goal=   None    Shift=    0.000
 GapD=    0.570 DampG=2.000 DampE=1.000 DampFc=2.0000 IDamp=-1.
 RMSDP=8.28D-04 MaxDP=6.28D-03              OVMax= 0.00D+00

 Cycle   2  Pass 1  IDiag  1:
 E= -206.226823623343     Delta-E=       -0.000476515346 Rises=F Damp=F AM=F Ri=F Fa=F
 DIIS: error= 1.85D-03 at cycle   2 NSaved=   2.
 NSaved= 2 IEnMin= 2 EnMin= -206.226823623343     IErMin= 2 ErrMin= 1.85D-03
 ErrMax= 1.85D-03  0.00D+00 EMaxC= 1.00D-01 BMatC= 1.30D-05 BMatP= 1.38D-04
 Rises=F IDIUse=3 WtCom= 9.92D-01 WtEn= 7.93D-03
 Coeff-Com: -0.131D+00 0.113D+01
 Coeff-En:   0.000D+00 0.100D+01
 Coeff:     -0.130D+00 0.113D+01
 Gap=     0.570 Goal=   None    Shift=    0.000
 RMSDP=4.42D-04 MaxDP=5.37D-03 DE=-4.77D-04 OVMax= 0.00D+00

 Cycle   3  Pass 1  IDiag  1:
 E= -206.226913134398     Delta-E=       -0.000089511056 Rises=F Damp=F AM=F Ri=F Fa=F
 DIIS: error= 7.04D-04 at cycle   3 NSaved=   3.
 NSaved= 3 IEnMin= 3 EnMin= -206.226913134398     IErMin= 3 ErrMin= 7.04D-04
 ErrMax= 7.04D-04  0.00D+00 EMaxC= 1.00D-01 BMatC= 4.28D-06 BMatP= 1.30D-05
 Rises=F IDIUse=3 WtCom= 9.98D-01 WtEn= 1.87D-03
 Coeff-Com: -0.131D+00 0.284D+00 0.847D+00
 Coeff-En:   0.000D+00 0.000D+00 0.100D+01
 Coeff:     -0.131D+00 0.283D+00 0.847D+00
 Gap=     0.570 Goal=   None    Shift=    0.000
 RMSDP=1.78D-04 MaxDP=1.59D-03 DE=-8.95D-05 OVMax= 0.00D+00

 Cycle   4  Pass 1  IDiag  1:
 E= -206.226933079833     Delta-E=       -0.000019945435 Rises=F Damp=F AM=F Ri=F Fa=F
 DIIS: error= 3.54D-04 at cycle   4 NSaved=   4.
 NSaved= 4 IEnMin= 4 EnMin= -206.226933079833     IErMin= 4 ErrMin= 3.54D-04
 ErrMax= 3.54D-04  0.00D+00 EMaxC= 1.00D-01 BMatC= 5.24D-07 BMatP= 4.28D-06
 Rises=F IDIUse=3 WtCom= 9.99D-01 WtEn= 6.65D-04
 Coeff-Com:  0.340D-01-0.176D+00-0.328D+00 0.147D+01
 Coeff-En:   0.000D+00 0.000D+00 0.000D+00 0.100D+01
 Coeff:      0.340D-01-0.176D+00-0.327D+00 0.147D+01
 Gap=     0.570 Goal=   None    Shift=    0.000
 RMSDP=1.34D-04 MaxDP=1.59D-03 DE=-1.99D-05 OVMax= 0.00D+00

 Cycle   5  Pass 1  IDiag  1:
 E= -206.226938366687     Delta-E=       -0.000005286854 Rises=F Damp=F AM=F Ri=F Fa=F
 DIIS: error= 7.70D-05 at cycle   5 NSaved=   5.
 NSaved= 5 IEnMin= 5 EnMin= -206.226938366687     IErMin= 5 ErrMin= 7.70D-05
 ErrMax= 7.70D-05  0.00D+00 EMaxC= 1.00D-01 BMatC= 4.54D-08 BMatP= 5.24D-07
 Rises=F IDIUse=1 WtCom= 1.00D+00 WtEn= 0.00D+00
 Coeff-Com:  0.119D-01-0.181D-01-0.124D+00 0.839D-01 0.105D+01
 Coeff:      0.119D-01-0.181D-01-0.124D+00 0.839D-01 0.105D+01
 Gap=     0.570 Goal=   None    Shift=    0.000
 RMSDP=2.98D-05 MaxDP=3.43D-04 DE=-5.29D-06 OVMax= 0.00D+00

 Cycle   6  Pass 1  IDiag  1:
 E= -206.226938657334     Delta-E=       -0.000000290647 Rises=F Damp=F AM=F Ri=F Fa=F
 DIIS: error= 1.51D-05 at cycle   6 NSaved=   6.
 NSaved= 6 IEnMin= 6 EnMin= -206.226938657334     IErMin= 6 ErrMin= 1.51D-05
 ErrMax= 1.51D-05  0.00D+00 EMaxC= 1.00D-01 BMatC= 3.66D-09 BMatP= 4.54D-08
 Rises=F IDIUse=1 WtCom= 1.00D+00 WtEn= 0.00D+00
 Coeff-Com: -0.322D-02 0.198D-01 0.242D-01-0.163D+00 0.785D-01 0.104D+01
 Coeff:     -0.322D-02 0.198D-01 0.242D-01-0.163D+00 0.785D-01 0.104D+01
 Gap=     0.570 Goal=   None    Shift=    0.000
 RMSDP=7.68D-06 MaxDP=8.49D-05 DE=-2.91D-07 OVMax= 0.00D+00

 Cycle   7  Pass 1  IDiag  1:
 E= -206.226938673962     Delta-E=       -0.000000016628 Rises=F Damp=F AM=F Ri=F Fa=F
 DIIS: error= 3.67D-06 at cycle   7 NSaved=   7.
 NSaved= 7 IEnMin= 7 EnMin= -206.226938673962     IErMin= 7 ErrMin= 3.67D-06
 ErrMax= 3.67D-06  0.00D+00 EMaxC= 1.00D-01 BMatC= 7.71D-11 BMatP= 3.66D-09
 Rises=F IDIUse=1 WtCom= 1.00D+00 WtEn= 0.00D+00
 Coeff-Com:  0.962D-03-0.730D-02-0.552D-02 0.596D-01-0.344D-01-0.472D+00
 Coeff-Com:  0.146D+01
 Coeff:      0.962D-03-0.730D-02-0.552D-02 0.596D-01-0.344D-01-0.472D+00
 Coeff:      0.146D+01
 Gap=     0.570 Goal=   None    Shift=    0.000
 RMSDP=1.05D-06 MaxDP=7.15D-06 DE=-1.66D-08 OVMax= 0.00D+00

 Cycle   8  Pass 1  IDiag  1:
 E= -206.226938674421     Delta-E=       -0.000000000459 Rises=F Damp=F AM=F Ri=F Fa=F
 DIIS: error= 4.45D-07 at cycle   8 NSaved=   8.
 NSaved= 8 IEnMin= 8 EnMin= -206.226938674421     IErMin= 8 ErrMin= 4.45D-07
 ErrMax= 4.45D-07  0.00D+00 EMaxC= 1.00D-01 BMatC= 2.39D-12 BMatP= 7.71D-11
 Rises=F IDIUse=1 WtCom= 1.00D+00 WtEn= 0.00D+00
 Coeff-Com: -0.220D-03 0.173D-02 0.165D-02-0.157D-01 0.124D-01 0.113D+00
 Coeff-Com: -0.441D+00 0.133D+01
 Coeff:     -0.220D-03 0.173D-02 0.165D-02-0.157D-01 0.124D-01 0.113D+00
 Coeff:     -0.441D+00 0.133D+01
 Gap=     0.570 Goal=   None    Shift=    0.000
 RMSDP=1.64D-07 MaxDP=1.08D-06 DE=-4.59D-10 OVMax= 0.00D+00

 Cycle   9  Pass 1  IDiag  1:
 E= -206.226938674431     Delta-E=       -0.000000000010 Rises=F Damp=F AM=F Ri=F Fa=F
 DIIS: error= 8.34D-08 at cycle   9 NSaved=   9.
 NSaved= 9 IEnMin= 9 EnMin= -206.226938674431     IErMin= 9 ErrMin= 8.34D-08
 ErrMax= 8.34D-08  0.00D+00 EMaxC= 1.00D-01 BMatC= 8.21D-14 BMatP= 2.39D-12
 Rises=F IDIUse=1 WtCom= 1.00D+00 WtEn= 0.00D+00
 Coeff-Com:  0.155D-04-0.134D-03-0.988D-04 0.117D-02-0.905D-03-0.100D-01
 Coeff-Com:  0.499D-01-0.314D+00 0.127D+01
 Coeff:      0.155D-04-0.134D-03-0.988D-04 0.117D-02-0.905D-03-0.100D-01
 Coeff:      0.499D-01-0.314D+00 0.127D+01
 Gap=     0.570 Goal=   None    Shift=    0.000
 RMSDP=3.34D-08 MaxDP=2.18D-07 DE=-1.04D-11 OVMax= 0.00D+00

 Cycle  10  Pass 1  IDiag  1:
 E= -206.226938674431     Delta-E=        0.000000000000 Rises=F Damp=F AM=F Ri=F Fa=F
 DIIS: error= 1.43D-08 at cycle  10 NSaved=  10.
 NSaved=10 IEnMin= 9 EnMin= -206.226938674431     IErMin=10 ErrMin= 1.43D-08
 ErrMax= 1.43D-08  0.00D+00 EMaxC= 1.00D-01 BMatC= 2.42D-15 BMatP= 8.21D-14
 Rises=F IDIUse=1 WtCom= 1.00D+00 WtEn= 0.00D+00
 Coeff-Com:  0.467D-05-0.323D-04-0.274D-04 0.256D-03-0.142D-03-0.177D-02
 Coeff-Com:  0.304D-02 0.388D-01-0.370D+00 0.133D+01
 Coeff:      0.467D-05-0.323D-04-0.274D-04 0.256D-03-0.142D-03-0.177D-02
 Coeff:      0.304D-02 0.388D-01-0.370D+00 0.133D+01
 Gap=     0.570 Goal=   None    Shift=    0.000
 RMSDP=6.83D-09 MaxDP=5.86D-08 DE= 2.27D-13 OVMax= 0.00D+00

 SCF Done:  E(RHF) =  -206.226938674     A.U. after   10 cycles
            NFock= 10  Conv=0.68D-08     -V/T= 2.0089
 KE=         204.401757 PE=        -804.108314 EE=         232.134101
 Leave Link  502 at Sun Jun 28 00:25:49 2026, MaxMem=   104857600 cpu:               0.0 elap:               0.0
 (Enter /Users/vincenzobarone/gdv_j32p/gdv/l508.exe)
 QCSCF skips out because SCF is already converged.
 Leave Link  508 at Sun Jun 28 00:25:49 2026, MaxMem=   104857600 cpu:               0.0 elap:               0.0
 (Enter /Users/vincenzobarone/gdv_j32p/gdv/l701.exe)
 ... and contract with generalized density number  0.
 Compute integral first derivatives.
 Leave Link  701 at Sun Jun 28 00:25:50 2026, MaxMem=   104857600 cpu:               0.0 elap:               0.0
 (Enter /Users/vincenzobarone/gdv_j32p/gdv/l702.exe)
 L702 exits ... SP integral derivatives will be done elsewhere.
 Leave Link  702 at Sun Jun 28 00:25:50 2026, MaxMem=   104857600 cpu:               0.0 elap:               0.0
 (Enter /Users/vincenzobarone/gdv_j32p/gdv/l703.exe)
 Integral derivatives from FoFJK, PRISM(SPDF).
 Compute integral first derivatives, UseDBF=F ICtDFT=           0.
 Calling FoFJK, ICntrl=      2127 FMM=F ISym2X=1 I1Cent= 0 IOpClX= 0 NMat=1 NMatS=1 NMatT=0.
 FoFJK:  IHMeth= 1 ICntrl=    2127 DoSepK=F KAlg= 0 I1Cent=           0 FoldK=F
 IRaf=         0 NMat=       1 IRICut=       1 DoRegI=T DoRafI=F ISym2E= 1 IDoP0=0 IntGTp=1.
 FoFCou: FMM=F IPFlag=           0 FMFlag=      100000 FMFlg1=         800
         NFxFlg=           0 DoJE=F BraDBF=F KetDBF=F FulRan=T
         wScrn=  0.000000 ICntrl=      2127 IOpCl=  0 I1Cent=           0 NGrid=           0
         NMat0=    1 NMatS0=      1 NMatT0=    0 NMatD0=    1 NMtDS0=    0 NMtDT0=    0
 Petite list used in FoFCou.
 Leave Link  703 at Sun Jun 28 00:25:50 2026, MaxMem=   104857600 cpu:               0.0 elap:               0.0
 (Enter /Users/vincenzobarone/gdv_j32p/gdv/l716.exe)
 Dipole        =-4.14687645D-17 0.00000000D+00 7.12449154D-01
 ***** Axes restored to original set *****
 -------------------------------------------------------------------
 Center     Atomic                   Forces (Hartrees/Bohr)
 Number     Number              X              Y              Z
 -------------------------------------------------------------------
      1        6           0.004322657    0.007596227    0.000000000
      2        6           0.004322657   -0.007596227    0.000000000
      3        6          -0.001220740    0.000174729    0.000000000
      4        1           0.000843924   -0.000677211    0.000000000
      5        6          -0.001220740   -0.000174729    0.000000000
      6        1           0.000843924    0.000677211    0.000000000
      7        7          -0.014420184    0.000000000    0.000000000
      8        1          -0.000370317   -0.000782518    0.000000000
      9        1           0.007269136    0.000000000    0.000000000
     10        1          -0.000370317    0.000782518    0.000000000
 -------------------------------------------------------------------
 Cartesian Forces:  Max     0.014420184 RMS     0.003743618
 Leave Link  716 at Sun Jun 28 00:25:50 2026, MaxMem=   104857600 cpu:               0.0 elap:               0.0
 (Enter /Users/vincenzobarone/gdv_j32p/gdv/l103.exe)

 GradGradGradGradGradGradGradGradGradGradGradGradGradGradGradGradGradGrad
 Berny optimization.
 Using GEDIIS/GDIIS optimizer.
 FormGI is forming the generalized inverse of G from B-inverse, IUseBI=4.
 NTrRot=    -1 NTRed=    24 NAtoms=    10 NSkip=     0 NRank=    24 IsLin=F EigSml=4.0217D-02
 Internal  Forces:  Max     0.007269136 RMS     0.002867456
 Search for a local minimum.
 Step number     2 out of a maximum of    34
 All quantities printed in internal units (Hartrees-Bohrs-Radians)
 RMS Force = .46825D-02 SwitMx=.10000D-02 MixMth= 1
 Mixed Optimization -- RFO/linear search
 Update second derivatives using D2CorX and points    1    2
 DE= -2.02D-03 DEPred=-2.36D-03 R= 8.57D-01
 TightC=F SS=  1.41D+00  RLast= 9.55D-02 DXNew= 5.0454D-01 2.8647D-01
 Trust test= 8.57D-01 RLast= 9.55D-02 DXMaxT set to 3.00D-01
 ITU=  1  0
 Use linear search instead of GDIIS.
     Eigenvalues ---    0.15838   0.16000   0.31818   0.36206   0.36341
     Eigenvalues ---    0.40877   0.47940   0.52946   0.666571000.00000
     Eigenvalues --- 1000.000001000.000001000.000001000.000001000.00000
     Eigenvalues --- 1000.000001000.000001000.000001000.000001000.00000
     Eigenvalues --- 1000.000001000.000001000.000001000.00000
 RFO step:  Lambda=-2.94275244D-04 EMin= 1.58375367D-01
 Quartic linear search produced a step of -0.12382.
 GrdOpt: GIC=T ITstSp=10 NP=   2 DidLin=T DidDIS=F IRisen=  0
         ISwap=1 XLin=-0.124 DXMaxT= 0.300 DidEig=F Rises=F
 Iteration  1 RMS(Cart)=  0.00550469 RMS(Int)=  0.00001468
 Iteration  2 RMS(Cart)=  0.00001736 RMS(Int)=  0.00000000
 Iteration  3 RMS(Cart)=  0.00000000 RMS(Int)=  0.00000000
 Fixing frozen coordinates.
 Iteration  1 RMS(Cart)=  0.00000000 RMS(Int)=  0.00000000
 ClnCor:  largest displacement from symmetrization is 2.72D-14 for atom     6.
 Variable       Old X    -DE/DX   Delta X   Delta X   Delta X     New X
                                 (Linear)    (Quad)   (Total)
 A1Str001     2.69068   0.00656  -0.00010   0.01314   0.01304   2.70372
 A1Str002     3.60552   0.00679   0.00903  -0.00222   0.00682   3.61233
 A1Str003     2.87817   0.00039   0.00045   0.00025   0.00070   2.87887
 A1Str004     3.70543   0.00265  -0.00513   0.01315   0.00802   3.71345
 A1Str005     2.88657  -0.00081  -0.00087  -0.00061  -0.00147   2.88510
 A1Str006     1.94076  -0.00727  -0.00547  -0.00508  -0.01056   1.93020
 B2Str001     0.00000   0.00000   0.00000   0.00000   0.00000   0.00000
 B2Str002     0.00000   0.00000   0.00000   0.00000   0.00000   0.00000
 B2Str003     0.00000   0.00000   0.00000   0.00000   0.00000   0.00000
 B2Str004     0.00000   0.00000   0.00000   0.00000   0.00000   0.00000
 A1Bend00    -0.01545   0.00213  -0.00084   0.01299   0.01215  -0.00329
 A1Bend00    -0.17537  -0.00133   0.00037  -0.00785  -0.00748  -0.18285
 B2Bend00     0.00000   0.00000   0.00000   0.00000   0.00000   0.00000
 B2Bend00     0.00000   0.00000   0.00000   0.00000   0.00000   0.00000
 B2Bend00     0.00000   0.00000   0.00000   0.00000   0.00000   0.00000
 A1CyBe00     0.02072  -0.00642   0.00022  -0.01740  -0.01718   0.00354
 B2CyBe00     0.00000   0.00000   0.00000   0.00000   0.00000   0.00000
 A2RPck00     0.00000   0.00000   0.00000   0.00000   0.00000   0.00000
 B1RPck00     0.00000   0.00000   0.00000   0.00000   0.00000   0.00000
 A2OuPl00     0.00000   0.00000   0.00000   0.00000   0.00000   0.00000
 A2OuPl00     0.00000   0.00000   0.00000   0.00000   0.00000   0.00000
 B1OuPl00     0.00000   0.00000   0.00000   0.00000   0.00000   0.00000
 B1OuPl00     0.00000   0.00000   0.00000   0.00000   0.00000   0.00000
 B1OuPl00     0.00000   0.00000   0.00000   0.00000   0.00000   0.00000
         Item               Value     Threshold  Converged?
 Maximum Force            0.007269     0.000450     NO 
 RMS     Force            0.004683     0.000300     NO 
 Maximum Displacement     0.014842     0.001800     NO 
 RMS     Displacement     0.006154     0.001200     NO 
 Predicted change in Energy=-1.891893D-04
 Lowest energy point so far.  Saving SCF results.
 GradGradGradGradGradGradGradGradGradGradGradGradGradGradGradGradGradGrad

 Leave Link  103 at Sun Jun 28 00:25:50 2026, MaxMem=   104857600 cpu:               0.0 elap:               0.0
 (Enter /Users/vincenzobarone/gdv_j32p/gdv/l202.exe)
                          Input orientation:                          
 ---------------------------------------------------------------------
 Center     Atomic      Atomic             Coordinates (Angstroms)
 Number     Number       Type             X           Y           Z
 ---------------------------------------------------------------------
      1          6           0        0.971110    0.715373    0.000000
      2          6           0        0.971110   -0.715373    0.000000
      3          6           0       -0.316191    1.127558    0.000000
      4          1           0        1.840202    1.351849    0.000000
      5          6           0       -0.316191   -1.127558    0.000000
      6          1           0        1.840202   -1.351849    0.000000
      7          7           0       -1.128204    0.000000    0.000000
      8          1           0       -0.746337    2.117722    0.000000
      9          1           0       -2.149624    0.000000    0.000000
     10          1           0       -0.746337   -2.117722    0.000000
 ---------------------------------------------------------------------
                    Distance matrix (angstroms):
                    1          2          3          4          5
     1  C    0.000000
     2  C    1.430746   0.000000
     3  C    1.351680   2.248007   0.000000
     4  H    1.077229   2.242482   2.168026   0.000000
     5  C    2.248007   1.351680   2.255115   3.285953   0.000000
     6  H    2.242482   1.077229   3.285953   2.703697   2.168026
     7  N    2.217855   2.217855   1.389515   3.261738   1.389515
     8  H    2.217252   3.313013   1.079561   2.697545   3.273662
     9  H    3.201678   3.201678   2.152409   4.212625   2.152409
    10  H    3.313013   2.217252   3.273662   4.327598   1.079561
                    6          7          8          9         10
     6  H    0.000000
     7  N    3.261738   0.000000
     8  H    4.327598   2.151875   0.000000
     9  H    4.212625   1.021420   2.540464   0.000000
    10  H    2.697545   2.151875   4.235443   2.540464   0.000000
 Stoichiometry    C4H5N
 Framework group  C2V[C2(NH),SGV(C4H4)]
 Deg. of freedom     9
 Full point group                 C2V     NOp   4
 RotChk:  IX=0 Diff= 5.30D-33
 Largest Abelian subgroup         C2V     NOp   4
 Largest concise Abelian subgroup C2      NOp   2
                         Standard orientation:                         
 ---------------------------------------------------------------------
 Center     Atomic      Atomic             Coordinates (Angstroms)
 Number     Number       Type             X           Y           Z
 ---------------------------------------------------------------------
      1          6           0        0.000000    0.715373   -0.971118
      2          6           0        0.000000   -0.715373   -0.971118
      3          6           0        0.000000    1.127558    0.316183
      4          1           0        0.000000    1.351849   -1.840210
      5          6           0        0.000000   -1.127558    0.316183
      6          1           0        0.000000   -1.351849   -1.840210
      7          7           0        0.000000    0.000000    1.128196
      8          1           0        0.000000    2.117722    0.746329
      9          1           0        0.000000    0.000000    2.149616
     10          1           0        0.000000   -2.117722    0.746329
 ---------------------------------------------------------------------
 Rotational constants (GHZ):           9.1121746           9.1028538           4.5537559
 Leave Link  202 at Sun Jun 28 00:25:50 2026, MaxMem=   104857600 cpu:               0.0 elap:               0.0
 (Enter /Users/vincenzobarone/gdv_j32p/gdv/l301.exe)
 Standard basis: STO-3G (5D, 7F)
 Ernie: Thresh=  0.10000D-02 Tol=  0.10000D-05 Strict=F.
 There are    14 symmetry adapted cartesian basis functions of A1  symmetry.
 There are     2 symmetry adapted cartesian basis functions of A2  symmetry.
 There are     3 symmetry adapted cartesian basis functions of B1  symmetry.
 There are    11 symmetry adapted cartesian basis functions of B2  symmetry.
 There are    14 symmetry adapted basis functions of A1  symmetry.
 There are     2 symmetry adapted basis functions of A2  symmetry.
 There are     3 symmetry adapted basis functions of B1  symmetry.
 There are    11 symmetry adapted basis functions of B2  symmetry.
    30 basis functions,    90 primitive gaussians,    30 cartesian basis functions
    18 alpha electrons       18 beta electrons
       nuclear repulsion energy       161.0219106057 Hartrees.
 IExCor=         0 DFT=F Ex=HF Corr=None N6=None ScaHFX=  1.000000
 ScaDFX=  1.000000  1.000000  1.000000  1.000000  1.000000  0.000000
 ScaDFX=  0.000000  0.000000  0.000000  0.000000  0.000000  0.000000
 Grid=UltraFine IRanWt=     -1 IRanGd=            0 ICorTp=0 IEDCtl=  2004
 NAtoms=   10 NActive=   10 NUniq=    6 SFac= 2.78D+00 NAtFMM=   60 NAOKFM=F Big=F
 Integral buffers will be    131072 words long.
 Raffenetti 1 integral format.
 Two-electron integral symmetry is turned on.
 Leave Link  301 at Sun Jun 28 00:25:50 2026, MaxMem=   104857600 cpu:               0.0 elap:               0.0
 (Enter /Users/vincenzobarone/gdv_j32p/gdv/l302.exe)
 NPDir=0 NMtPBC=     1 NCelOv=     1 NCel=       1 NClECP=     1 NCelD=      1
         NCelK=      1 NCelE2=     1 NClLst=     1 CellRange=     0.0.
 One-electron integrals computed using PRISM.
 One-electron integral symmetry used in STVInt
 NBasis=    30 RedAO= T EigKep=  1.73D-01  NBF=    14     2     3    11
 NBsUse=    30 1.00D-06 EigRej= -1.00D+00 NBFU=    14     2     3    11
 Leave Link  302 at Sun Jun 28 00:25:50 2026, MaxMem=   104857600 cpu:               0.0 elap:               0.0
 (Enter /Users/vincenzobarone/gdv_j32p/gdv/l303.exe)
 DipDrv:  MaxL=1.
 Leave Link  303 at Sun Jun 28 00:25:50 2026, MaxMem=   104857600 cpu:               0.0 elap:               0.0
 (Enter /Users/vincenzobarone/gdv_j32p/gdv/l401.exe)
 Initial guess from the checkpoint file:  "/Users/vincenzobarone/Documents/GAUSSIAN_SCRATCH/Gau-58204.chk"
 B after Tr=     0.000000    0.000000    0.000000
         Rot=    1.000000    0.000000    0.000000    0.000000 Ang=   0.00 deg.
 AO Guess basis will be translated and rotated to current coordinates.
 JPrj=2 DoOrth=T DoCkMO=T.
 Initial guess orbital symmetries:
       Occupied  (A1) (B2) (A1) (A1) (B2) (A1) (A1) (B2) (A1) (B2)
                 (A1) (A1) (B2) (B1) (B2) (A1) (B1) (A2)
       Virtual   (B1) (A2) (A1) (A1) (B2) (A1) (B2) (B2) (A1) (B2)
                 (A1) (B2)
 The electronic state of the initial guess is 1-A1.
 Leave Link  401 at Sun Jun 28 00:25:50 2026, MaxMem=   104857600 cpu:               0.0 elap:               0.0
 (Enter /Users/vincenzobarone/gdv_j32p/gdv/l502.exe)
 Keep R1 ints in memory in symmetry-blocked form, NReq=927485.
 FoFCou: FMM=F IPFlag=           0 FMFlag=           0 FMFlg1=           0
         NFxFlg=           0 DoJE=F BraDBF=F KetDBF=F FulRan=T
         wScrn=  0.000000 ICntrl=       600 IOpCl=  0 I1Cent=           0 NGrid=           0
         NMat0=    1 NMatS0=    465 NMatT0=    0 NMatD0=    1 NMtDS0=    0 NMtDT0=    0
 Petite list used in FoFCou.
 Closed shell SCF:
 Using DIIS extrapolation, IDIIS=  1040.
 NGot=   104857600 LenX=   104818993 LenY=   104817652
 Requested convergence on RMS density matrix=1.00D-08 within  48 cycles.
 Requested convergence on MAX density matrix=1.00D-06.
 Requested convergence on             energy=1.00D-06.
 No special actions if energy rises.

 Cycle   1  Pass 1  IDiag  1:
 E= -206.227086918308    
 DIIS: error= 5.72D-04 at cycle   1 NSaved=   1.
 NSaved= 1 IEnMin= 1 EnMin= -206.227086918308     IErMin= 1 ErrMin= 5.72D-04
 ErrMax= 5.72D-04  0.00D+00 EMaxC= 1.00D-01 BMatC= 6.39D-06 BMatP= 6.39D-06
 Rises=F IDIUse=3 WtCom= 9.99D-01 WtEn= 1.37D-03
 Coeff-Com:  0.100D+01
 Coeff-En:   0.100D+01
 Coeff:      0.100D+01
 Gap=     0.569 Goal=   None    Shift=    0.000
 RMSDP=1.79D-04 MaxDP=1.17D-03              OVMax= 0.00D+00

 Cycle   2  Pass 1  IDiag  1:
 E= -206.227105637146     Delta-E=       -0.000018718837 Rises=F Damp=F AM=F Ri=F Fa=F
 DIIS: error= 2.29D-04 at cycle   2 NSaved=   2.
 NSaved= 2 IEnMin= 2 EnMin= -206.227105637146     IErMin= 2 ErrMin= 2.29D-04
 ErrMax= 2.29D-04  0.00D+00 EMaxC= 1.00D-01 BMatC= 5.26D-07 BMatP= 6.39D-06
 Rises=F IDIUse=3 WtCom= 1.00D+00 WtEn= 3.47D-04
 Coeff-Com: -0.930D-01 0.109D+01
 Coeff-En:   0.000D+00 0.100D+01
 Coeff:     -0.930D-01 0.109D+01
 Gap=     0.569 Goal=   None    Shift=    0.000
 RMSDP=6.81D-05 MaxDP=5.28D-04 DE=-1.87D-05 OVMax= 0.00D+00

 Cycle   3  Pass 1  IDiag  1:
 E= -206.227107791038     Delta-E=       -0.000002153892 Rises=F Damp=F AM=F Ri=F Fa=F
 DIIS: error= 1.53D-04 at cycle   3 NSaved=   3.
 NSaved= 3 IEnMin= 3 EnMin= -206.227107791038     IErMin= 3 ErrMin= 1.53D-04
 ErrMax= 1.53D-04  0.00D+00 EMaxC= 1.00D-01 BMatC= 8.41D-08 BMatP= 5.26D-07
 Rises=F IDIUse=3 WtCom= 1.00D+00 WtEn= 1.90D-04
 Coeff-Com: -0.734D-01 0.201D+00 0.873D+00
 Coeff-En:   0.000D+00 0.000D+00 0.100D+01
 Coeff:     -0.734D-01 0.201D+00 0.873D+00
 Gap=     0.569 Goal=   None    Shift=    0.000
 RMSDP=2.85D-05 MaxDP=3.49D-04 DE=-2.15D-06 OVMax= 0.00D+00

 Cycle   4  Pass 1  IDiag  1:
 E= -206.227108232322     Delta-E=       -0.000000441284 Rises=F Damp=F AM=F Ri=F Fa=F
 DIIS: error= 5.25D-05 at cycle   4 NSaved=   4.
 NSaved= 4 IEnMin= 4 EnMin= -206.227108232322     IErMin= 4 ErrMin= 5.25D-05
 ErrMax= 5.25D-05  0.00D+00 EMaxC= 1.00D-01 BMatC= 1.47D-08 BMatP= 8.41D-08
 Rises=F IDIUse=1 WtCom= 1.00D+00 WtEn= 0.00D+00
 Coeff-Com:  0.309D-01-0.203D+00-0.887D-01 0.126D+01
 Coeff:      0.309D-01-0.203D+00-0.887D-01 0.126D+01
 Gap=     0.569 Goal=   None    Shift=    0.000
 RMSDP=1.76D-05 MaxDP=1.73D-04 DE=-4.41D-07 OVMax= 0.00D+00

 Cycle   5  Pass 1  IDiag  1:
 E= -206.227108348737     Delta-E=       -0.000000116415 Rises=F Damp=F AM=F Ri=F Fa=F
 DIIS: error= 1.41D-05 at cycle   5 NSaved=   5.
 NSaved= 5 IEnMin= 5 EnMin= -206.227108348737     IErMin= 5 ErrMin= 1.41D-05
 ErrMax= 1.41D-05  0.00D+00 EMaxC= 1.00D-01 BMatC= 1.61D-09 BMatP= 1.47D-08
 Rises=F IDIUse=1 WtCom= 1.00D+00 WtEn= 0.00D+00
 Coeff-Com:  0.113D-01-0.355D-01-0.929D-01-0.680D-01 0.119D+01
 Coeff:      0.113D-01-0.355D-01-0.929D-01-0.680D-01 0.119D+01
 Gap=     0.569 Goal=   None    Shift=    0.000
 RMSDP=6.69D-06 MaxDP=7.31D-05 DE=-1.16D-07 OVMax= 0.00D+00

 Cycle   6  Pass 1  IDiag  1:
 E= -206.227108360972     Delta-E=       -0.000000012235 Rises=F Damp=F AM=F Ri=F Fa=F
 DIIS: error= 3.74D-06 at cycle   6 NSaved=   6.
 NSaved= 6 IEnMin= 6 EnMin= -206.227108360972     IErMin= 6 ErrMin= 3.74D-06
 ErrMax= 3.74D-06  0.00D+00 EMaxC= 1.00D-01 BMatC= 7.30D-11 BMatP= 1.61D-09
 Rises=F IDIUse=1 WtCom= 1.00D+00 WtEn= 0.00D+00
 Coeff-Com: -0.275D-02 0.200D-01 0.135D-01-0.143D+00 0.548D-01 0.106D+01
 Coeff:     -0.275D-02 0.200D-01 0.135D-01-0.143D+00 0.548D-01 0.106D+01
 Gap=     0.569 Goal=   None    Shift=    0.000
 RMSDP=1.20D-06 MaxDP=1.62D-05 DE=-1.22D-08 OVMax= 0.00D+00

 Cycle   7  Pass 1  IDiag  1:
 E= -206.227108361430     Delta-E=       -0.000000000458 Rises=F Damp=F AM=F Ri=F Fa=F
 DIIS: error= 6.58D-07 at cycle   7 NSaved=   7.
 NSaved= 7 IEnMin= 7 EnMin= -206.227108361430     IErMin= 7 ErrMin= 6.58D-07
 ErrMax= 6.58D-07  0.00D+00 EMaxC= 1.00D-01 BMatC= 2.22D-12 BMatP= 7.30D-11
 Rises=F IDIUse=1 WtCom= 1.00D+00 WtEn= 0.00D+00
 Coeff-Com:  0.743D-03-0.666D-02-0.174D-02 0.562D-01-0.626D-01-0.358D+00
 Coeff-Com:  0.137D+01
 Coeff:      0.743D-03-0.666D-02-0.174D-02 0.562D-01-0.626D-01-0.358D+00
 Coeff:      0.137D+01
 Gap=     0.569 Goal=   None    Shift=    0.000
 RMSDP=1.74D-07 MaxDP=1.77D-06 DE=-4.58D-10 OVMax= 0.00D+00

 Cycle   8  Pass 1  IDiag  1:
 E= -206.227108361444     Delta-E=       -0.000000000014 Rises=F Damp=F AM=F Ri=F Fa=F
 DIIS: error= 6.55D-08 at cycle   8 NSaved=   8.
 NSaved= 8 IEnMin= 8 EnMin= -206.227108361444     IErMin= 8 ErrMin= 6.55D-08
 ErrMax= 6.55D-08  0.00D+00 EMaxC= 1.00D-01 BMatC= 2.24D-14 BMatP= 2.22D-12
 Rises=F IDIUse=1 WtCom= 1.00D+00 WtEn= 0.00D+00
 Coeff-Com: -0.998D-04 0.988D-03 0.110D-03-0.862D-02 0.112D-01 0.558D-01
 Coeff-Com: -0.281D+00 0.122D+01
 Coeff:     -0.998D-04 0.988D-03 0.110D-03-0.862D-02 0.112D-01 0.558D-01
 Coeff:     -0.281D+00 0.122D+01
 Gap=     0.569 Goal=   None    Shift=    0.000
 RMSDP=1.82D-08 MaxDP=1.85D-07 DE=-1.40D-11 OVMax= 0.00D+00

 Cycle   9  Pass 1  IDiag  1:
 E= -206.227108361444     Delta-E=        0.000000000000 Rises=F Damp=F AM=F Ri=F Fa=F
 DIIS: error= 4.77D-09 at cycle   9 NSaved=   9.
 NSaved= 9 IEnMin= 9 EnMin= -206.227108361444     IErMin= 9 ErrMin= 4.77D-09
 ErrMax= 4.77D-09  0.00D+00 EMaxC= 1.00D-01 BMatC= 4.85D-16 BMatP= 2.24D-14
 Rises=F IDIUse=1 WtCom= 1.00D+00 WtEn= 0.00D+00
 Coeff-Com: -0.134D-05-0.300D-08 0.765D-05 0.129D-03-0.485D-03-0.116D-03
 Coeff-Com:  0.117D-01-0.176D+00 0.116D+01
 Coeff:     -0.134D-05-0.300D-08 0.765D-05 0.129D-03-0.485D-03-0.116D-03
 Coeff:      0.117D-01-0.176D+00 0.116D+01
 Gap=     0.569 Goal=   None    Shift=    0.000
 RMSDP=2.32D-09 MaxDP=1.28D-08 DE=-2.27D-13 OVMax= 0.00D+00

 SCF Done:  E(RHF) =  -206.227108361     A.U. after    9 cycles
            NFock=  9  Conv=0.23D-08     -V/T= 2.0090
 KE=         204.377789 PE=        -803.456251 EE=         231.829443
 Leave Link  502 at Sun Jun 28 00:25:50 2026, MaxMem=   104857600 cpu:               0.0 elap:               0.0
 (Enter /Users/vincenzobarone/gdv_j32p/gdv/l508.exe)
 QCSCF skips out because SCF is already converged.
 Leave Link  508 at Sun Jun 28 00:25:50 2026, MaxMem=   104857600 cpu:               0.0 elap:               0.0
 (Enter /Users/vincenzobarone/gdv_j32p/gdv/l701.exe)
 ... and contract with generalized density number  0.
 Compute integral first derivatives.
 Leave Link  701 at Sun Jun 28 00:25:50 2026, MaxMem=   104857600 cpu:               0.0 elap:               0.0
 (Enter /Users/vincenzobarone/gdv_j32p/gdv/l702.exe)
 L702 exits ... SP integral derivatives will be done elsewhere.
 Leave Link  702 at Sun Jun 28 00:25:50 2026, MaxMem=   104857600 cpu:               0.0 elap:               0.0
 (Enter /Users/vincenzobarone/gdv_j32p/gdv/l703.exe)
 Integral derivatives from FoFJK, PRISM(SPDF).
 Compute integral first derivatives, UseDBF=F ICtDFT=           0.
 Calling FoFJK, ICntrl=      2127 FMM=F ISym2X=1 I1Cent= 0 IOpClX= 0 NMat=1 NMatS=1 NMatT=0.
 FoFJK:  IHMeth= 1 ICntrl=    2127 DoSepK=F KAlg= 0 I1Cent=           0 FoldK=F
 IRaf=         0 NMat=       1 IRICut=       1 DoRegI=T DoRafI=F ISym2E= 1 IDoP0=0 IntGTp=1.
 FoFCou: FMM=F IPFlag=           0 FMFlag=      100000 FMFlg1=         800
         NFxFlg=           0 DoJE=F BraDBF=F KetDBF=F FulRan=T
         wScrn=  0.000000 ICntrl=      2127 IOpCl=  0 I1Cent=           0 NGrid=           0
         NMat0=    1 NMatS0=      1 NMatT0=    0 NMatD0=    1 NMtDS0=    0 NMtDT0=    0
 Petite list used in FoFCou.
 Leave Link  703 at Sun Jun 28 00:25:50 2026, MaxMem=   104857600 cpu:               0.0 elap:               0.0
 (Enter /Users/vincenzobarone/gdv_j32p/gdv/l716.exe)
 Dipole        =-4.12860850D-17 2.66453526D-15 7.03246392D-01
 ***** Axes restored to original set *****
 -------------------------------------------------------------------
 Center     Atomic                   Forces (Hartrees/Bohr)
 Number     Number              X              Y              Z
 -------------------------------------------------------------------
      1        6          -0.001370086    0.000996050    0.000000000
      2        6          -0.001370086   -0.000996050    0.000000000
      3        6          -0.000188766   -0.000171324    0.000000000
      4        1           0.000078433   -0.000110268    0.000000000
      5        6          -0.000188766    0.000171324    0.000000000
      6        1           0.000078433    0.000110268    0.000000000
      7        7           0.001867085    0.000000000    0.000000000
      8        1          -0.000080865    0.000241079    0.000000000
      9        1           0.001255485    0.000000000    0.000000000
     10        1          -0.000080865   -0.000241079    0.000000000
 -------------------------------------------------------------------
 Cartesian Forces:  Max     0.001867085 RMS     0.000608185
 Leave Link  716 at Sun Jun 28 00:25:50 2026, MaxMem=   104857600 cpu:               0.0 elap:               0.0
 (Enter /Users/vincenzobarone/gdv_j32p/gdv/l103.exe)

 GradGradGradGradGradGradGradGradGradGradGradGradGradGradGradGradGradGrad
 Berny optimization.
 Using GEDIIS/GDIIS optimizer.
 FormGI is forming the generalized inverse of G from B-inverse, IUseBI=4.
 NTrRot=    -1 NTRed=    24 NAtoms=    10 NSkip=     0 NRank=    24 IsLin=F EigSml=4.0595D-02
 Internal  Forces:  Max     0.002607944 RMS     0.000788029
 Search for a local minimum.
 Step number     3 out of a maximum of    34
 All quantities printed in internal units (Hartrees-Bohrs-Radians)
 RMS Force = .12868D-02 SwitMx=.10000D-02 MixMth= 1
 Mixed Optimization -- RFO/linear search
 Update second derivatives using D2CorX and points    1    2    3
 DE= -1.70D-04 DEPred=-1.89D-04 R= 8.97D-01
 TightC=F SS=  1.41D+00  RLast= 2.99D-02 DXNew= 5.0454D-01 8.9671D-02
 Trust test= 8.97D-01 RLast= 2.99D-02 DXMaxT set to 3.00D-01
 ITU=  1  1  0
 Use linear search instead of GDIIS.
     Eigenvalues ---    0.15146   0.16017   0.35031   0.36199   0.36585
     Eigenvalues ---    0.38272   0.47246   0.56924   0.710491000.00000
     Eigenvalues --- 1000.000001000.000001000.000001000.000001000.00000
     Eigenvalues --- 1000.000001000.000001000.000001000.000001000.00000
     Eigenvalues --- 1000.000001000.000001000.000001000.00000
 RFO step:  Lambda=-2.70275964D-05 EMin= 1.51457667D-01
 Quartic linear search produced a step of -0.09017.
 GrdOpt: GIC=T ITstSp=10 NP=   3 DidLin=T DidDIS=F IRisen=  0
         ISwap=1 XLin=-0.090 DXMaxT= 0.300 DidEig=F Rises=F
 Iteration  1 RMS(Cart)=  0.00218894 RMS(Int)=  0.00000206
 Iteration  2 RMS(Cart)=  0.00000266 RMS(Int)=  0.00000000
 Iteration  3 RMS(Cart)=  0.00000000 RMS(Int)=  0.00000000
 Fixing frozen coordinates.
 Iteration  1 RMS(Cart)=  0.00000000 RMS(Int)=  0.00000000
 ClnCor:  largest displacement from symmetrization is 6.38D-15 for atom     6.
 Variable       Old X    -DE/DX   Delta X   Delta X   Delta X     New X
                                 (Linear)    (Quad)   (Total)
[...]
 (Enter /Users/vincenzobarone/gdv_j32p/gdv/l103.exe)

 GradGradGradGradGradGradGradGradGradGradGradGradGradGradGradGradGradGrad
 Berny optimization.
 Internal  Forces:  Max     0.000107533 RMS     0.000032133
 Search for a local minimum.
 Step number     1 out of a maximum of     2
 All quantities printed in internal units (Hartrees-Bohrs-Radians)
 Second derivative matrix not updated -- analytic derivatives used.
 ITU=  0
     Eigenvalues ---    0.12492   0.14674   0.36750   0.49503   0.49819
     Eigenvalues ---    0.58279   0.61091   0.61449   0.755511000.00000
     Eigenvalues --- 1000.000001000.000001000.000001000.000001000.00000
     Eigenvalues --- 1000.000001000.000001000.000001000.000001000.00000
     Eigenvalues --- 1000.000001000.000001000.000001000.00000
 RFO step:  Lambda=-4.61117602D-08 EMin= 1.24922985D-01
 Linear search not attempted -- first point.
 GrdOpt: GIC=T ITstSp=10 NP=   1 DidLin=F DidDIS=F IRisen=  0
         ISwap=1 XLin= 0.000 DXMaxT= 0.300 DidEig=F Rises=F
 Iteration  1 RMS(Cart)=  0.00009029 RMS(Int)=  0.00000001
 Iteration  2 RMS(Cart)=  0.00000001 RMS(Int)=  0.00000000
 Fixing frozen coordinates.
 Iteration  1 RMS(Cart)=  0.00000000 RMS(Int)=  0.00000000
 ClnCor:  largest displacement from symmetrization is 1.11D-15 for atom    10.
 Variable       Old X    -DE/DX   Delta X   Delta X   Delta X     New X
                                 (Linear)    (Quad)   (Total)
 A1Str001     2.70577  -0.00001   0.00000  -0.00004  -0.00004   2.70573
 A1Str002     3.61024   0.00007   0.00000   0.00011   0.00011   3.61035
 A1Str003     2.87891  -0.00002   0.00000  -0.00003  -0.00003   2.87888
 A1Str004     3.71097   0.00011   0.00000   0.00016   0.00016   3.71113
 A1Str005     2.88569  -0.00001   0.00000  -0.00001  -0.00001   2.88567
 A1Str006     1.92814   0.00003   0.00000   0.00006   0.00006   1.92819
 B2Str001     0.00000   0.00000   0.00000   0.00000   0.00000   0.00000
 B2Str002     0.00000   0.00000   0.00000   0.00000   0.00000   0.00000
 B2Str003     0.00000   0.00000   0.00000   0.00000   0.00000   0.00000
 B2Str004     0.00000   0.00000   0.00000   0.00000   0.00000   0.00000
 A1Bend00     0.00016   0.00002   0.00000   0.00019   0.00019   0.00035
 A1Bend00    -0.18353   0.00001   0.00000  -0.00002  -0.00002  -0.18354
 B2Bend00     0.00000   0.00000   0.00000   0.00000   0.00000   0.00000
 B2Bend00     0.00000   0.00000   0.00000   0.00000   0.00000   0.00000
 B2Bend00     0.00000   0.00000   0.00000   0.00000   0.00000   0.00000
 A1CyBe00     0.00792   0.00008   0.00000   0.00018   0.00018   0.00810
 B2CyBe00     0.00000   0.00000   0.00000   0.00000   0.00000   0.00000
 A2RPck00     0.00000   0.00000   0.00000   0.00000   0.00000   0.00000
 B1RPck00     0.00000   0.00000   0.00000   0.00000   0.00000   0.00000
 A2OuPl00     0.00000   0.00000   0.00000   0.00000   0.00000   0.00000
 A2OuPl00     0.00000   0.00000   0.00000   0.00000   0.00000   0.00000
 B1OuPl00     0.00000   0.00000   0.00000   0.00000   0.00000   0.00000
 B1OuPl00     0.00000   0.00000   0.00000   0.00000   0.00000   0.00000
 B1OuPl00     0.00000   0.00000   0.00000   0.00000   0.00000   0.00000
         Item               Value     Threshold  Converged?
 Maximum Force            0.000108     0.000450     YES
 RMS     Force            0.000052     0.000300     YES
 Maximum Displacement     0.000238     0.001800     YES
 RMS     Displacement     0.000101     0.001200     YES
 Predicted change in Energy=-2.305588D-08
 Optimization completed.
    -- Stationary point found.
                           ----------------------------
                           !   Optimized Parameters   !
                           ! (Angstroms and Degrees)  !
 --------------------------                            --------------------------
 ! Name      Definition          Value          Derivative Info.                !
 --------------------------------------------------------------------------------
 ! A1Str001  R(1,2)              1.4318         -DE/DX =    0.0                 !
 ! A1Str002  GIC-13              3.6102         -DE/DX =    0.0001              !
 ! A1Str003  GIC-22              2.8789         -DE/DX =    0.0                 !
 ! A1Str004  GIC-31              3.711          -DE/DX =    0.0001              !
 ! A1Str005  GIC-40              2.8857         -DE/DX =    0.0                 !
 ! A1Str006  R(7,9)              1.0203         -DE/DX =    0.0                 !
 ! B2Str001  GIC-44              0.0            -DE/DX =    0.0                 !
 ! B2Str002  GIC-45              0.0            -DE/DX =    0.0                 !
 ! B2Str003  GIC-46              0.0            -DE/DX =    0.0                 !
 ! B2Str004  GIC-47              0.0            -DE/DX =    0.0                 !
 ! A1Bend001 GIC-82              0.0002         -DE/DX =    0.0                 !
 ! A1Bend002 GIC-115            -0.1835         -DE/DX =    0.0                 !
 ! B2Bend001 GIC-117             0.0            -DE/DX =    0.0                 !
 ! B2Bend002 GIC-119             0.0            -DE/DX =    0.0                 !
 ! B2Bend003 GIC-135             0.0            -DE/DX =    0.0                 !
 ! A1CyBe001 GIC-175             0.0079         -DE/DX =    0.0001              !
 ! B2CyBe001 GIC-184             0.0            -DE/DX =    0.0                 !
 ! A2RPck001 GIC-344             0.0            -DE/DX =    0.0                 !
 ! B1RPck001 GIC-382             0.0            -DE/DX =    0.0                 !
 ! A2OuPl001 GIC-482             0.0            -DE/DX =    0.0                 !
 ! A2OuPl002 GIC-572             0.0            -DE/DX =    0.0                 !
 ! B1OuPl001 GIC-573             0.0            -DE/DX =    0.0                 !
 ! B1OuPl002 GIC-574             0.0            -DE/DX =    0.0                 !
 ! B1OuPl003 U(7,3,5,9)          0.0            -DE/DX =    0.0                 !
 --------------------------------------------------------------------------------
 NOTE: GIC-type coordinates are in arbitrary units.
 GradGradGradGradGradGradGradGradGradGradGradGradGradGradGradGradGradGrad

 Leave Link  103 at Sun Jun 28 00:25:53 2026, MaxMem=   104857600 cpu:               0.0 elap:               0.0
 (Enter /Users/vincenzobarone/gdv_j32p/gdv/l9999.exe)

 ----------------------------------------------------------------------

 Electric dipole moment (input orientation):
 (Debye = 10**-18 statcoulomb cm , SI units = C m)
                  (au)            (Debye)         (10**-30 SI)
   Tot        0.703595D+00      0.178836D+01      0.596532D+01
   x         -0.703595D+00     -0.178836D+01     -0.596532D+01
   y          0.000000D+00      0.000000D+00      0.000000D+00
   z          0.000000D+00      0.000000D+00      0.000000D+00

 Dipole polarizability, Alpha (input orientation).
 (esu units = cm**3 , SI units = C**2 m**2 J**-1)
 Alpha(0;0):
               (au)            (10**-24 esu)      (10**-40 SI)
   iso        0.231889D+02      0.343624D+01      0.382333D+01
   aniso      0.284572D+02      0.421692D+01      0.469196D+01
   xx         0.343367D+02      0.508817D+01      0.566135D+01
   yx         0.000000D+00      0.000000D+00      0.000000D+00
   yy         0.309091D+02      0.458025D+01      0.509622D+01
   zx         0.000000D+00      0.000000D+00      0.000000D+00
   zy         0.000000D+00      0.000000D+00      0.000000D+00
   zz         0.432093D+01      0.640296D+00      0.712425D+00

 First dipole hyperpolarizability, Beta (input orientation).
 ||, _|_  parallel and perpendicular components, (z) with respect to z axis,
 vector components x,y,z.  Values do not include the 1/n! factor of 1/2.
 (esu units = statvolt**-1 cm**4 , SI units = C**3 m**3 J**-2)
 Beta(0;0,0):
               (au)            (10**-30 esu)      (10**-50 SI)
   || (z)     0.000000D+00      0.000000D+00      0.000000D+00
   _|_(z)     0.000000D+00      0.000000D+00      0.000000D+00
   x         -0.574735D+02     -0.496527D+00     -0.184281D+00
   y          0.000000D+00      0.000000D+00      0.000000D+00
   z          0.000000D+00      0.000000D+00      0.000000D+00
   ||         0.114947D+02      0.993053D-01      0.368562D-01
   xxx       -0.187110D+02     -0.161649D+00     -0.599944D-01
   xxy        0.000000D+00      0.000000D+00      0.000000D+00
   yxy        0.286297D+01      0.247338D-01      0.917972D-02
   yyy        0.000000D+00      0.000000D+00      0.000000D+00
   xxz        0.000000D+00      0.000000D+00      0.000000D+00
   yxz        0.000000D+00      0.000000D+00      0.000000D+00
   yyz        0.000000D+00      0.000000D+00      0.000000D+00
   zxz       -0.330978D+01     -0.285939D-01     -0.106124D-01
   zyz        0.000000D+00      0.000000D+00      0.000000D+00
   zzz        0.000000D+00      0.000000D+00      0.000000D+00

 ----------------------------------------------------------------------

 Dipole orientation:
     6          0.00000000          1.35288286         -1.83298357
     6          0.00000000         -1.35288286         -1.83298357
     6          0.00000000          2.13202313          0.59803533
     1          0.00000000          2.55260165         -3.47759226
     6          0.00000000         -2.13202313          0.59803533
     1          0.00000000         -2.55260165         -3.47759226
     7          0.00000000          0.00000000          2.12778358
     1          0.00000000          4.00267063          1.41306271
     1          0.00000000          0.00000000          4.05592167
     1          0.00000000         -4.00267063          1.41306271

 Electric dipole moment (dipole orientation):
 (Debye = 10**-18 statcoulomb cm , SI units = C m)
                  (au)            (Debye)         (10**-30 SI)
   Tot        0.703595D+00      0.178836D+01      0.596532D+01
   x          0.000000D+00      0.000000D+00      0.000000D+00
   y          0.000000D+00      0.000000D+00      0.000000D+00
   z          0.703595D+00      0.178836D+01      0.596532D+01

 Dipole polarizability, Alpha (dipole orientation).
 (esu units = cm**3 , SI units = C**2 m**2 J**-1)
 Alpha(0;0):
               (au)            (10**-24 esu)      (10**-40 SI)
   iso        0.231889D+02      0.343624D+01      0.382333D+01
   aniso      0.284572D+02      0.421692D+01      0.469196D+01
   xx         0.432093D+01      0.640296D+00      0.712425D+00
   yx         0.000000D+00      0.000000D+00      0.000000D+00
   yy         0.309091D+02      0.458025D+01      0.509622D+01
   zx         0.000000D+00      0.000000D+00      0.000000D+00
   zy         0.000000D+00      0.000000D+00      0.000000D+00
   zz         0.343367D+02      0.508817D+01      0.566135D+01

 First dipole hyperpolarizability, Beta (dipole orientation).
 ||, _|_  parallel and perpendicular components, (z) with respect to z axis,
 vector components x,y,z.  Values do not include the 1/n! factor of 1/2.
 (esu units = statvolt**-1 cm**4 , SI units = C**3 m**3 J**-2)
 Beta(0;0,0):
               (au)            (10**-30 esu)      (10**-50 SI)
   || (z)     0.114947D+02      0.993053D-01      0.368562D-01
   _|_(z)     0.383157D+01      0.331018D-01      0.122854D-01
   x          0.000000D+00      0.000000D+00      0.000000D+00
   y          0.000000D+00      0.000000D+00      0.000000D+00
   z          0.574735D+02      0.496527D+00      0.184281D+00
   ||         0.114947D+02      0.993053D-01      0.368562D-01
   xxx        0.000000D+00      0.000000D+00      0.000000D+00
   xxy        0.000000D+00      0.000000D+00      0.000000D+00
   yxy        0.000000D+00      0.000000D+00      0.000000D+00
   yyy        0.000000D+00      0.000000D+00      0.000000D+00
   xxz        0.330978D+01      0.285939D-01      0.106124D-01
   yxz        0.000000D+00      0.000000D+00      0.000000D+00
   yyz       -0.286297D+01     -0.247338D-01     -0.917972D-02
   zxz        0.000000D+00      0.000000D+00      0.000000D+00
   zyz        0.000000D+00      0.000000D+00      0.000000D+00
   zzz        0.187110D+02      0.161649D+00      0.599944D-01

 ----------------------------------------------------------------------
 Unable to Open any file for archive entry.
 1\1\GINC-MAC\Freq\RHF\STO-3G\C4H5N1\VINCENZOBARONE\28-Jun-2026\0\\#P G
 eom=AllCheck Guess=TCheck SCRF=Check GenChk RHF/STO-3G Freq\\MATRIX py
 rrole symmetrized GIC ReadAllGIC\\0,1\C,0.9699731351,0.7159147764,0.\C
 ,0.9699731351,-0.7159147764,0.\C,-0.3164666701,1.1282180531,0.\H,1.840
 2625707,1.3507786214,0.\C,-0.3164666701,-1.1282180531,0.\H,1.840262570
 7,-1.3507786214,0.\N,-1.1259745821,0.,0.\H,-0.747760586,2.1181220822,0
 .\H,-2.1463013174,0.,0.\H,-0.747760586,-2.1181220822,0.\\Version=Apple
 M1-GDVRevJ.32+\State=1-A1\HF=-206.2271207\RMSD=2.566e-10\RMSF=3.454e-0
 5\ZeroPoint=0.0955527\Thermal=0.0991857\ETot=-206.1279349\HTot=-206.12
 69907\GTot=-206.1572088\Dipole=-0.7035946,0.,0.\DipoleDeriv=-0.2620611
 ,0.0977177,0.,0.1896334,-0.036343,0.,0.,0.,-0.1333362,-0.2620611,-0.09
 77177,0.,-0.1896334,-0.036343,0.,0.,0.,-0.1333362,0.3915312,0.0038154,
 0.,0.2995087,-0.1284298,0.,0.,0.,0.021449,0.0977467,-0.0026083,0.,0.01
 49844,0.0222939,0.,0.,0.,0.068016,0.3915312,-0.0038154,0.,-0.2995087,-
 0.1284298,0.,0.,0.,0.021449,0.0977467,0.0026083,0.,-0.0149844,0.022293
 9,0.,0.,0.,0.068016,-0.7913918,0.,0.,0.,-0.1001601,0.,0.,0.,-0.3966909
 ,0.0481549,-0.0125829,0.,-0.0549934,0.1204153,0.,0.,0.,0.0867534,0.240
 6483,0.,0.,0.,0.1442873,0.,0.,0.,0.3109266,0.0481549,0.0125829,0.,0.05
 49934,0.1204153,0.,0.,0.,0.0867534\Polar=34.3366702,0.,30.9090639,0.,0
 .,4.3209289\PolarDeriv=0.2800246,-0.7904782,5.9484433,0.,0.,0.298092,4
 .0876056,0.5108659,-8.9045015,0.,0.,0.2273137,0.,0.,0.,2.7862814,-0.68
 69556,0.,0.2800246,0.7904782,5.9484433,0.,0.,0.298092,-4.0876056,0.510
 8659,8.9045015,0.,0.,-0.2273137,0.,0.,0.,2.7862814,0.6869556,0.,1.0285
 477,0.4223667,-6.4160035,0.,0.,-0.166285,2.0581032,-0.7282097,2.621285
 6,0.,0.,0.2945245,0.,0.,0.,-2.1381353,3.1539181,0.,5.4066306,2.3329561
 ,1.0042957,0.,0.,0.0801767,1.673569,2.747637,2.9411484,0.,0.,0.1281677
 ,0.,0.,0.,1.0569359,1.1033426,0.,1.0285477,-0.4223667,-6.4160035,0.,0.
 ,-0.166285,-2.0581032,-0.7282097,-2.6212856,0.,0.,-0.2945245,0.,0.,0.,
 -2.1381353,-3.1539181,0.,5.4066306,-2.3329561,1.0042957,0.,0.,0.080176
 7,-1.673569,2.747637,-2.9411484,0.,0.,-0.1281677,0.,0.,0.,1.0569359,-1
 .1033426,0.,-1.0713498,0.,1.770804,0.,0.,-0.3223591,-0.0000002,0.86510
 03,-0.0000002,0.,0.,0.,0.,0.,0.,-1.2700422,0.,0.,-1.7903039,2.3444012,
 -1.2446521,0.,0.,-0.0109619,0.3221312,-1.9448276,6.6990599,0.,0.,0.178
 8918,0.,0.,0.,-0.2818473,1.1699234,0.,-8.7784481,0.,-0.3549708,0.,0.,-
 0.0796843,0.,-2.0360315,0.,0.,0.,0.,0.,0.,0.,-1.5764281,-0.0000001,0.,
 -1.7903039,-2.3444012,-1.2446521,0.,0.,-0.0109619,-0.3221312,-1.944827
 6,-6.6990599,0.,0.,-0.1788918,0.,0.,0.,-0.2818473,-1.1699234,0.\HyperP
 olar=-18.7110386,0.,2.8629709,0.,0.,0.,0.,-3.3097816,0.,0.\Quadrupole=
 2.1487725,0.3766642,-2.5254367,0.,0.,0.\PG=C02V [C2(N1H1),SGV(C4H4)]\N
 Imag=0\\1.14114519,0.14861248,0.82810049,0.,0.,0.16970485,-0.16336749,
 0.04516961,0.,1.14114519,-0.04516961,-0.36092599,0.,-0.14861248,0.8281
 0049,0.,0.,-0.08120911,0.,0.,0.16970485,-0.55422890,0.08749707,0.,0.01
 735085,0.12722109,0.,0.98014739,0.15165111,-0.19515137,0.,0.01788037,-
 0.03402225,0.,-0.18637248,1.08069223,0.,0.,-0.08648567,0.,0.,0.0136730
 9,0.,0.,0.15702876,-0.34571688,-0.19259265,0.,0.01007341,0.00978843,0.
 ,-0.01224440,-0.03024737,0.,0.34869669,-0.19630946,-0.22095789,0.,-0.0
 3209535,-0.00481084,0.,0.01591644,0.01285764,0.,0.20505077,0.21474445,
 0.,0.,-0.04321646,0.,0.,-0.00017914,0.,0.,0.00138243,0.,0.,0.03323868,
 0.01735085,-0.12722109,0.,-0.55422890,-0.08749707,0.,-0.03172558,0.018
 64114,0.,0.00050826,0.00451861,0.,0.98014739,-0.01788037,-0.03402225,0
 .,-0.15165111,-0.19515137,0.,-0.01864114,-0.10135069,0.,0.00212655,-0.
 00823437,0.,0.18637248,1.08069223,0.,0.,0.01367309,0.,0.,-0.08648567,0
 .,0.,0.01193936,0.,0.,0.00496778,0.,0.,0.15702876,0.01007341,-0.009788
 43,0.,-0.34571688,0.19259265,0.,0.00050826,-0.00212655,0.,0.00058378,0
 .00072434,0.,-0.01224440,0.03024737,0.,0.34869669,0.03209535,-0.004810
 84,0.,0.19630946,-0.22095789,0.,-0.00451861,-0.00823437,0.,-0.00072434
 ,0.00200675,0.,-0.01591644,0.01285764,0.,-0.20505077,0.21474445,0.,0.,
 -0.00017914,0.,0.,-0.04321646,0.,0.,0.00496778,0.,0.,-0.00272680,0.,0.
 ,0.00138243,0.,0.,0.03323868,-0.11034393,0.02756550,0.,-0.11034393,-0.
 02756550,0.,-0.23202614,-0.14185030,0.,-0.00316546,0.00484821,0.,-0.23
 202614,0.14185029,0.,-0.00316546,-0.00484821,0.,1.25389734,-0.05911580
 ,-0.00811919,0.,0.05911581,-0.00811918,0.,-0.14752078,-0.35991536,0.,0
 .00693891,0.00162055,0.,0.14752078,-0.35991537,0.,-0.00693891,0.001620
 54,0.,0.,0.87771755,0.,0.,0.01210964,0.,0.,0.01210964,0.,0.,-0.0564467
 1,0.,0.,0.00780230,0.,0.,-0.05644671,0.,0.,0.00780230,0.,0.,0.07618519
 ,0.00696797,0.03022178,0.,-0.00701643,0.00042342,0.,-0.15081996,0.1573
 4512,0.,0.00106048,-0.00108891,0.,-0.00591726,-0.00364808,0.,0.0007021
 1,0.00167064,0.,0.01719309,-0.02903361,0.,0.13515628,-0.00756484,0.001
 90080,0.,0.00251577,0.00245623,0.,0.14750241,-0.41640268,0.,0.00100438
 ,0.00086689,0.,-0.00939395,0.00381886,0.,0.00003574,0.00047818,0.,0.02
 093120,-0.02233266,0.,-0.15587362,0.42868405,0.,0.,0.00445899,0.,0.,0.
 00846595,0.,0.,-0.03845563,0.,0.,-0.00537722,0.,0.,0.00271546,0.,0.,0.
 00109855,0.,0.,-0.00316001,0.,0.,0.02993859,0.00513621,-0.00904083,0.,
 0.00513621,0.00904084,0.,-0.01104426,0.01143088,0.,-0.00049798,0.00010
 599,0.,-0.01104426,-0.01143088,0.,-0.00049798,-0.00010599,0.,-0.597212
 45,0.,0.,0.00129692,0.00008139,0.,0.60743067,-0.00380308,-0.00847000,0
 .,0.00380308,-0.00847000,0.,-0.03047796,0.01770799,0.,-0.00130893,0.00
 142863,0.,0.03047795,0.01770799,0.,0.00130893,0.00142863,0.,0.,-0.1002
 2422,0.,0.00074478,0.00152767,0.,0.,0.07583563,0.,0.,0.00267787,0.,0.,
 0.00267787,0.,0.,-0.01031889,0.,0.,0.00300988,0.,0.,-0.01031888,0.,0.,
 0.00300988,0.,0.,0.00320438,0.,0.,-0.00220873,0.,0.,0.01047535,-0.0070
 1643,-0.00042342,0.,0.00696797,-0.03022178,0.,-0.00591726,0.00364808,0
 .,0.00070211,-0.00167064,0.,-0.15081996,-0.15734512,0.,0.00106048,0.00
 108891,0.,0.01719309,0.02903361,0.,0.00137680,0.00076153,0.,0.00129692
 ,-0.00074478,0.,0.13515628,-0.00251577,0.00245623,0.,0.00756484,0.0019
 0080,0.,0.00939395,0.00381886,0.,-0.00003574,0.00047818,0.,-0.14750241
 ,-0.41640268,0.,-0.00100438,0.00086689,0.,-0.02093119,-0.02233266,0.,-
 0.00076153,-0.00099736,0.,-0.00008139,0.00152767,0.,0.15587362,0.42868
 405,0.,0.,0.00846595,0.,0.,0.00445899,0.,0.,0.00271546,0.,0.,0.0010985
 5,0.,0.,-0.03845563,0.,0.,-0.00537722,0.,0.,-0.00316001,0.,0.,0.002524
 04,0.,0.,-0.00220872,0.,0.,0.02993859\\-0.00004817,0.00002078,0.,-0.00
 004817,-0.00002078,0.,0.00003237,-0.00011544,0.,0.00000336,0.00001672,
 0.,0.00003237,0.00011544,0.,0.00000336,-0.00001672,0.,0.00000250,0.,0.
 ,-0.00000386,0.00000268,0.,0.00003011,0.,0.,-0.00000386,-0.00000268,0.
 \\\@
 The archive entry for this job was punched.


 LORD, MAN... WERE YE BUT WHYLES WHERE I AM, 
 THE GENTILES YE WAD NE'ER ENVY 'EM.        
 IT'S TRUE, THEY NEEDNA STARVE OR SWEAT,     
 THRO' WINTER'S CAULD OR SIMMER'S HEAT...  
 THEY'VE NAE SAIR WARK TO CRAZE THEIR BANES, 
 AND FILL AULD AGE WITH GRIPS AN' GRANES...  
                                             
 BUT HUMAN BODIES ARE SIC FOOLS              
 FOR A' THEIR COLLEGES AND SCHOOLS,           
 THAT WHEN NAE REAL ILLS PERPLEX THEM,       
 THEY MAK ENOW THEMSELVES TO VEX THEM,       
 AN' AYE THE LESS THEY HAE TO STURT THEM,    
 IN LIKE PROPORTION LESS WILL HURT THEM....  
                                             
                (ROBERT BURNS 'THE TWA DOGS')
 Job cpu time:       0 days  0 hours  0 minutes  0.6 seconds.
 Elapsed time:       0 days  0 hours  0 minutes  0.5 seconds.
 File lengths (MBytes):  RWF=     34 Int=      0 D2E=      0 Chk=     29 Scr=      1
 Normal termination of Gaussian DV at Sun Jun 28 00:25:53 2026.
