4
q1=-1.0 q2=-1.0 energy_cm-1=140.0
C   0.0000000000   0.0000000000   0.0000000000
O   1.1900000000  -0.0200000000   0.0000000000
N   0.0200000000   1.1050000000  -0.0300000000
H   0.1200000000   0.0900000000   0.7600000000
4
q1=-1.0 q2=0.0 energy_cm-1=50.0
C   0.0000000000   0.0000000000   0.0000000000
O   1.1900000000   0.0000000000   0.0000000000
N   0.0000000000   1.1050000000   0.0000000000
H   0.1200000000   0.2500000000   0.7200000000
4
q1=-1.0 q2=1.0 energy_cm-1=120.0
C   0.0000000000   0.0000000000   0.0000000000
O   1.1900000000   0.0200000000   0.0000000000
N  -0.0200000000   1.1050000000   0.0300000000
H   0.1200000000   0.4100000000   0.6800000000
4
q1=0.0 q2=-1.0 energy_cm-1=80.0
C   0.0000000000   0.0000000000   0.0000000000
O   1.2200000000  -0.0200000000   0.0000000000
N   0.0200000000   1.1300000000  -0.0300000000
H   0.3000000000   0.0900000000   0.7200000000
4
q1=0.0 q2=0.0 energy_cm-1=0.0
C   0.0000000000   0.0000000000   0.0000000000
O   1.2200000000   0.0000000000   0.0000000000
N   0.0000000000   1.1300000000   0.0000000000
H   0.3000000000   0.2500000000   0.7200000000
4
q1=0.0 q2=1.0 energy_cm-1=80.0
C   0.0000000000   0.0000000000   0.0000000000
O   1.2200000000   0.0200000000   0.0000000000
N  -0.0200000000   1.1300000000   0.0300000000
H   0.3000000000   0.4100000000   0.7200000000
4
q1=1.0 q2=-1.0 energy_cm-1=120.0
C   0.0000000000   0.0000000000   0.0000000000
O   1.2500000000  -0.0200000000   0.0000000000
N   0.0200000000   1.1550000000  -0.0300000000
H   0.4800000000   0.0900000000   0.6800000000
4
q1=1.0 q2=0.0 energy_cm-1=50.0
C   0.0000000000   0.0000000000   0.0000000000
O   1.2500000000   0.0000000000   0.0000000000
N   0.0000000000   1.1550000000   0.0000000000
H   0.4800000000   0.2500000000   0.7200000000
4
q1=1.0 q2=1.0 energy_cm-1=140.0
C   0.0000000000   0.0000000000   0.0000000000
O   1.2500000000   0.0200000000   0.0000000000
N  -0.0200000000   1.1550000000   0.0300000000
H   0.4800000000   0.4100000000   0.7600000000
