PROGRAM SYSTEM MOLPRO

SETTING BASIS          =    CC-PVTZ
ATOMIC COORDINATES
NR  ATOM    CHARGE       X              Y              Z
 1  N       7.000000    0.00000000     0.00000000     0.00000000
 2  H       1.000000    0.00000000     0.93770000    -0.38160000
 3  H       1.000000    0.81246500    -0.46885000    -0.38160000
 4  H       1.000000   -0.81246500    -0.46885000    -0.38160000

!RHF expec          <1.1|FGXX|1.1>    -0.496993073249
!RHF expec          <1.1|FGYY|1.1>    -0.496132997466
!RHF expec          <1.1|FGZZ|1.1>     0.993126070715
!RHF expec          <1.1|FGYZ|1.1>    -0.000174264822
