 Entering Gaussian System, Link 0=gdv
 Initial command:
 /Users/vincenzobarone/Documents/gdv28/gdv/l1.exe "/Users/vincenzobarone/Documents/GAUSSIAN_SCRATCH/Gau-47376.inp" -scrdir="/Users/vincenzobarone/Documents/GAUSSIAN_SCRATCH/"
 Entering Link 1 = /Users/vincenzobarone/Documents/gdv28/gdv/l1.exe PID=     47377.
  
 Copyright (c) 1988-2024, Gaussian, Inc.  All Rights Reserved.
  
 This is the private, development version of
 the Gaussian(R) DV system of programs. It is based on
 the Gaussian(R) 16 system (copyright 2016, Gaussian, Inc.),
 the Gaussian(R) 09 system (copyright 2009, Gaussian, Inc.),
 the Gaussian(R) 03 system (copyright 2003, Gaussian, Inc.),
 the Gaussian(R) 98 system (copyright 1998, Gaussian, Inc.),
 the Gaussian(R) 94 system (copyright 1995, Gaussian, Inc.),
 the Gaussian 92(TM) system (copyright 1992, Gaussian, Inc.),
 the Gaussian 90(TM) system (copyright 1990, Gaussian, Inc.),
 the Gaussian 88(TM) system (copyright 1988, Gaussian, Inc.),
 the Gaussian 86(TM) system (copyright 1986, Carnegie Mellon
 University), and the Gaussian 82(TM) system (copyright 1983,
 Carnegie Mellon University). Gaussian is a federally registered
 trademark of Gaussian, Inc.
  
 This software contains proprietary and confidential information,
 including trade secrets, belonging to Gaussian, Inc.
  
 This software is provided under written license and may be
 used, copied, transmitted, or stored only in accord with that
 written license.
  
 The following legend is applicable only to US Government
 contracts under FAR:
  
                    RESTRICTED RIGHTS LEGEND
  
 Use, reproduction and disclosure by the US Government is
 subject to restrictions as set forth in subparagraphs (a)
 and (c) of the Commercial Computer Software - Restricted
 Rights clause in FAR 52.227-19.
  
 Gaussian, Inc.
 340 Quinnipiac St., Bldg. 40, Wallingford CT 06492
  
  
 ---------------------------------------------------------------
 Warning -- This program may not be used in any manner that
 competes with the business of Gaussian, Inc. or will provide
 assistance to any competitor of Gaussian, Inc.  The licensee
 of this program is prohibited from giving any competitor of
 Gaussian, Inc. access to this program.  By using this program,
 the user acknowledges that Gaussian, Inc. is engaged in the
 business of creating and licensing software in the field of
 computational chemistry and represents and warrants to the
 licensee that it is not a competitor of Gaussian, Inc. and that
 it will not use this program in any manner prohibited above.
 ---------------------------------------------------------------
  

 Cite this work as:
 Gaussian Development Version, Revision J.28,
 M. J. Frisch, G. W. Trucks, G. Scalmani, J. R. Cheeseman, X. Li, 
 J. Bloino, B. G. Janesko, A. V. Marenich, J. Zheng, F. Lipparini, 
 A. Jenkins, A. Liu, H. Liu, H. B. Schlegel, G. E. Scuseria, 
 M. A. Robb, V. Barone, G. A. Petersson, H. Nakatsuji, B. Mennucci, 
 C. Adamo, N. Rega, M. Caricato, H. P. Hratchian, J. V. Ortiz, 
 F. Pawlowski, A. F. Izmaylov, H. Hu, C. Liao, J. L. Sonnenberg, 
 D. Williams-Young, F. Ding, R. Gomperts, F. Egidi, J. Goings, 
 B. Peng, A. Petrone, T. Henderson, D. Ranasinghe, V. G. Zakrzewski, 
 J. Gao, G. Zheng, W. Liang, M. Hada, M. Ehara, K. Toyota, R. Fukuda, 
 J. Hasegawa, M. Ishida, T. Nakajima, Y. Honda, O. Kitao, H. Nakai, 
 T. Vreven, K. Throssell, J. A. Montgomery, Jr., J. E. Peralta, 
 F. Ogliaro, M. J. Bearpark, J. J. Heyd, E. N. Brothers, K. N. Kudin, 
 V. N. Staroverov, T. A. Keith, R. Kobayashi, J. Normand, 
 K. Raghavachari, A. P. Rendell, J. C. Burant, S. S. Iyengar, 
 M. Cossi, J. M. Millam, M. Klene, R. Cammi, R. L. Martin, O. Farkas, 
 J. B. Foresman, and D. J. Fox, Gaussian, Inc., Wallingford CT, 2023.
 
 *********************************************
 Gaussian DV:  Apple M1-GDVRevJ.28 14-Apr-2024
                  13-Mar-2025 
 *********************************************
 %Nprocshared=12
 Will use up to   12 processors via shared memory.
 %Mem=64GB
 %chk=prova.chk
 -------------------------------------
 #P OPT symmetry=loose geom=readallgic
 -------------------------------------
 1/18=20,19=15,37=310000000,38=1,145=602/1,3;
 2/9=110,12=2/2;
 3/11=9,25=1,30=1,71=1/1,2,3;
 4//1;
 5/5=2,38=5/2;
 6/7=2,8=2,9=2,10=2,28=1/1;
 7//1,2,3,16;
 1/18=20,19=15/3(2);
 2/9=110/2;
 99//99;
 2/9=110/2;
 3/11=9,25=1,30=1,71=1/1,2,3;
 4/5=5,16=3,69=1/1;
 5/5=2,38=5/2;
 7//1,2,3,16;
 1/18=20,19=15/3(-5);
 2/9=110/2;
 6/7=2,8=2,9=2,10=2,19=2,28=1/1;
 99/9=1/99;
 Leave Link    1 at Thu Mar 13 18:33:19 2025, MaxMem=  8589934592 cpu:               0.0 elap:               0.0
 (Enter /Users/vincenzobarone/Documents/gdv28/gdv/l101.exe)
 ---------------
 a-pinene B3/SVP
 ---------------
 Symbolic Z-matrix:
 Charge =     0 Multiplicity =     1
 6                    -0.1234   -0.6423   -0.7546 
 6                    -1.4338   -0.2806   -0.0892 
 6                    -1.4982    0.9188    0.5015 
 6                    -0.2797    1.8093    0.5219 
 6                     0.8713    1.1526   -0.2469 
 6                     1.0741   -0.3285    0.2086 
 6                     0.3187    0.5955   -1.5829 
 6                     0.9491   -0.667     1.6857 
 6                     2.3886   -0.9096   -0.3087 
 6                    -2.5618   -1.2633   -0.1352 
 1                     1.7576    1.7927   -0.2756 
 1                    -3.452    -0.8748    0.3625 
 1                    -2.8218   -1.5104   -1.1695 
 1                    -2.2748   -2.2016    0.3512 
 1                    -2.4083    1.257     0.9888 
 1                    -0.5132    2.7834    0.0754 
 1                     0.0196    2.0135    1.5576 
 1                    -0.1493   -1.6237   -1.2351 
 1                    -0.4796    1.1617   -2.0651 
 1                     1.1019    0.3755   -2.3056 
 1                     0.0184   -0.3099    2.1236 
 1                     0.9955   -1.751     1.8299 
 1                     1.7825   -0.2268    2.2424 
 1                     2.5598   -0.7104   -1.3665 
 1                     3.2306   -0.49      0.2501 
 1                     2.4034   -1.9942   -0.1662 
 
 Initializing the GIC definitions file.

 CrInp1: Reading the GIC input below.
 Stre1(Value= 1.5135)=R( 1, 2)
 Stre2(Value= 1.5686)=R( 1, 6)
 Stre3(Value= 1.5536)=R( 1, 7)
 Stre4(Value= 1.0930)=R( 1, 18)
 Stre5(Value= 1.3386)=R( 2, 3)
 Stre6(Value= 1.4967)=R( 2, 10)
 Stre7(Value= 1.5094)=R( 3, 4)
 Stre8(Value= 1.0863)=R( 3, 15)
 Stre9(Value= 1.5321)=R( 4, 5)
 Stre10(Value= 1.0967)=R( 4, 16)
 Stre11(Value= 1.0972)=R( 4, 17)
 Stre12(Value= 1.5628)=R( 5, 6)
 Stre13(Value= 1.5494)=R( 5, 7)
 Stre14(Value= 1.0936)=R( 5, 11)
 Stre15(Value= 1.5205)=R( 6, 8)
 Stre16(Value= 1.5274)=R( 6, 9)
 Stre17(Value= 1.0911)=R( 7, 19)
 Stre18(Value= 1.0882)=R( 7, 20)
 Stre19(Value= 1.0889)=R( 8, 21)
 Stre20(Value= 1.0946)=R( 8, 22)
 Stre21(Value= 1.0946)=R( 8, 23)
 Stre22(Value= 1.0900)=R( 9, 24)
 Stre23(Value= 1.0942)=R( 9, 25)
 Stre24(Value= 1.0940)=R( 9, 26)
 Stre25(Value= 1.0914)=R( 10, 12)
 Stre26(Value= 1.0948)=R( 10, 13)
 Stre27(Value= 1.0951)=R( 10, 14)
 Rock1(Value= 0.0337)=[ 0.5000*A( 18, 1, 7)-0.2500*A( 18, 1, 6)-0.2500*A( 18, 1, 2)]
 Rock2(Value= 0.0629)=[ 0.7071*A( 18, 1, 6)-0.7071*A( 18, 1, 2)]
 Rock3(Value= 0.0694)=[ 0.7071*A( 10, 2, 3)-0.7071*A( 10, 2, 1)]
 Rock4(Value=-0.0250)=[ 0.7071*A( 15, 3, 4)-0.7071*A( 15, 3, 2)]
 Bend5(Value=-0.0356)=[ 0.5000*A( 16, 4, 17)-0.2500*A( 3, 4, 16)-0.2500*A( 3, 4, 17)]
 Bend6(Value= 0.0020)=[ 0.5000*A( 3, 4, 16)-0.5000*A( 3, 4, 17)]
 Bend7(Value=-0.0344)=[ 0.5000*A( 16, 4, 17)-0.2500*A( 5, 4, 16)-0.2500*A( 5, 4, 17)]
 Bend8(Value=-0.0065)=[ 0.5000*A( 5, 4, 16)-0.5000*A( 5, 4, 17)]
 Rock9(Value= 0.0347)=[ 0.5000*A( 11, 5, 7)-0.2500*A( 11, 5, 6)-0.2500*A( 11, 5, 4)]
 Rock10(Value= 0.0669)=[ 0.7071*A( 11, 5, 6)-0.7071*A( 11, 5, 4)]
 Bend11(Value=-0.0630)=[ 0.5000*A( 8, 6, 9)-0.2500*A( 1, 6, 8)-0.2500*A( 1, 6, 9)]
 Bend12(Value= 0.0646)=[ 0.5000*A( 1, 6, 8)-0.5000*A( 1, 6, 9)]
 Bend13(Value=-0.0616)=[ 0.5000*A( 8, 6, 9)-0.2500*A( 5, 6, 8)-0.2500*A( 5, 6, 9)]
 Bend14(Value= 0.0609)=[ 0.5000*A( 5, 6, 8)-0.5000*A( 5, 6, 9)]
 Bend15(Value=-0.0440)=[ 0.5000*A( 19, 7, 20)-0.2500*A( 1, 7, 19)-0.2500*A( 1, 7, 20)]
 Bend16(Value= 0.0237)=[ 0.5000*A( 1, 7, 19)-0.5000*A( 1, 7, 20)]
 Bend17(Value=-0.0457)=[ 0.5000*A( 19, 7, 20)-0.2500*A( 5, 7, 19)-0.2500*A( 5, 7, 20)]
 Bend18(Value= 0.0368)=[ 0.5000*A( 5, 7, 19)-0.5000*A( 5, 7, 20)]
 Bend19(Value= 0.0329)=[ 0.5000*A( 6, 8, 21)-0.2500*A( 22, 8, 6)-0.2500*A( 22, 8, 21)]
 Bend20(Value= 0.0196)=[ 0.5000*A( 22, 8, 6)-0.5000*A( 22, 8, 21)]
 Bend21(Value= 0.0320)=[ 0.5000*A( 6, 8, 21)-0.2500*A( 23, 8, 6)-0.2500*A( 23, 8, 21)]
 Bend22(Value= 0.0146)=[ 0.5000*A( 23, 8, 6)-0.5000*A( 23, 8, 21)]
 Ang23(Value= 107.397) = A( 22, 8, 23)
 Bend24(Value= 0.0377)=[ 0.5000*A( 6, 9, 24)-0.2500*A( 25, 9, 6)-0.2500*A( 25, 9, 24)]
 Bend25(Value= 0.0204)=[ 0.5000*A( 25, 9, 6)-0.5000*A( 25, 9, 24)]
 Bend26(Value= 0.0371)=[ 0.5000*A( 6, 9, 24)-0.2500*A( 26, 9, 6)-0.2500*A( 26, 9, 24)]
 Bend27(Value= 0.0208)=[ 0.5000*A( 26, 9, 6)-0.5000*A( 26, 9, 24)]
 Ang28(Value= 107.651) = A( 25, 9, 26)
 Bend29(Value=-0.0345)=[ 0.5000*A( 13, 10, 14)-0.2500*A( 2, 10, 13)-0.2500*A( 2, 10, 14)]
 Bend30(Value= 0.0026)=[ 0.5000*A( 2, 10, 13)-0.5000*A( 2, 10, 14)]
 Bend31(Value=-0.0149)=[ 0.5000*A( 13, 10, 14)-0.2500*A( 12, 10, 13)-0.2500*A( 12, 10, 14)]
 Bend32(Value= 0.0006)=[ 0.5000*A( 12, 10, 13)-0.5000*A( 12, 10, 14)]
 Ang33(Value= 111.530) = A( 2, 10, 12)
 RDef34(Value= 0.0339)=[ 0.5000*A( 6, 5, 7)-0.5000*A( 5, 7, 1)+0.5000*A( 7, 1, 6)-0.5000*A( 1, 6, 5)]
 RDef35(Value= 0.1529)=[ 0.5774*A( 1, 2, 3)-0.2887*A( 2, 3, 4)-0.2887*A( 3, 4, 5)+0.5774*A( 4, 5, 6)-0.2887*A( 5, 6, 1)-0
 .2887*A( 6, 1, 2)]
 RDef36(Value=-0.1372)=[ 0.0000*A( 1, 2, 3)+0.5000*A( 2, 3, 4)-0.5000*A( 3, 4, 5)-0.0000*A( 4, 5, 6)+0.5000*A( 5, 6, 1)-0
 .5000*A( 6, 1, 2)]
 RDef37(Value=-0.2051)=[ 0.4082*A( 1, 2, 3)-0.4082*A( 2, 3, 4)+0.4082*A( 3, 4, 5)-0.4082*A( 4, 5, 6)+0.4082*A( 5, 6, 1)-0
 .4082*A( 6, 1, 2)]
 Dihe1(Value= 0.782) = D( 3, 2, 10, 12)
 Dihe2(Value= -48.770) = D( 1, 6, 8, 21)
 Dihe3(Value= 46.542) = D( 1, 6, 9, 24)
 RPck4(Value= 0.0006)=[ 0.5000*D( 5, 7, 1, 6)-0.5000*D( 7, 1, 6, 5)+0.5000*D( 1, 6, 5, 7)-0.5000*D( 6, 5, 7, 1)]
 RPck5(Value= 0.0130)=[ 0.5774*D( 5, 6, 1, 2)-0.2887*D( 6, 1, 2, 3)-0.2887*D( 1, 2, 3, 4)+0.5774*D( 2, 3, 4, 5)-0.2887*D(
  3, 4, 5, 6)-0.2887*D( 4, 5, 6, 1)]
 RPck6(Value= 0.0130)=[ 0.0000*D( 5, 6, 1, 2)+0.5000*D( 6, 1, 2, 3)-0.5000*D( 1, 2, 3, 4)-0.0000*D( 2, 3, 4, 5)+0.5000*D(
  3, 4, 5, 6)-0.5000*D( 4, 5, 6, 1)]
 RPck7(Value= 0.0130)=[ 0.4082*D( 5, 6, 1, 2)-0.4082*D( 6, 1, 2, 3)+0.4082*D( 1, 2, 3, 4)-0.4082*D( 2, 3, 4, 5)+0.4082*D(
  3, 4, 5, 6)-0.4082*D( 4, 5, 6, 1)]
 OuPl1(Value= 0.252) = U( 2, 1, 3, 10)
 OuPl2(Value= -1.194) = U( 3, 2, 4, 15)
 Iteration  1 RMS(Cart)=  0.19828198 RMS(Int)=  0.25905895
 Iteration  2 RMS(Cart)=  0.20127693 RMS(Int)=  0.22281313
 Iteration  3 RMS(Cart)=  0.19688822 RMS(Int)=  0.18877831
 Iteration  4 RMS(Cart)=  0.19235340 RMS(Int)=  0.15853428
 Iteration  5 RMS(Cart)=  0.17049921 RMS(Int)=  0.13251096
 Iteration  6 RMS(Cart)=  0.11284396 RMS(Int)=  0.10809515
 Iteration  7 RMS(Cart)=  0.10930501 RMS(Int)=  0.08656361
 Iteration  8 RMS(Cart)=  0.06423618 RMS(Int)=  0.06771517
 Iteration  9 RMS(Cart)=  0.06134253 RMS(Int)=  0.05139392
 Iteration 10 RMS(Cart)=  0.06276372 RMS(Int)=  0.04107191
 Iteration 11 RMS(Cart)=  0.02711217 RMS(Int)=  0.03989092
 Iteration 12 RMS(Cart)=  0.00112972 RMS(Int)=  0.03988911
 Iteration 13 RMS(Cart)=  0.00004372 RMS(Int)=  0.03988911
 Iteration 14 RMS(Cart)=  0.00000188 RMS(Int)=  0.03988911
 Iteration 15 RMS(Cart)=  0.00000008 RMS(Int)=  0.03988911
 ITRead=  0  0  0  0  0  0  0  0  0  0  0  0  0  0  0  0  0  0  0  0
 ITRead=  0  0  0  0  0  0
 MicOpt= -1 -1 -1 -1 -1 -1 -1 -1 -1 -1 -1 -1 -1 -1 -1 -1 -1 -1 -1 -1
 MicOpt= -1 -1 -1 -1 -1 -1
 NAtoms=     26 NQM=       26 NQMF=       0 NMMI=      0 NMMIF=      0
                NMic=       0 NMicF=      0.
                    Isotopes and Nuclear Properties:
 (Nuclear quadrupole moments (NQMom) in fm**2, nuclear magnetic moments (NMagM)
  in nuclear magnetons)

  Atom         1           2           3           4           5           6           7           8           9          10
 IAtWgt=          12          12          12          12          12          12          12          12          12          12
 AtmWgt=  12.0000000  12.0000000  12.0000000  12.0000000  12.0000000  12.0000000  12.0000000  12.0000000  12.0000000  12.0000000
 NucSpn=           0           0           0           0           0           0           0           0           0           0
 AtZEff=   -0.000000   -0.000000   -0.000000   -0.000000   -0.000000   -0.000000   -0.000000   -0.000000   -0.000000   -0.000000
 NQMom=    0.0000000   0.0000000   0.0000000   0.0000000   0.0000000   0.0000000   0.0000000   0.0000000   0.0000000   0.0000000
 NMagM=    0.0000000   0.0000000   0.0000000   0.0000000   0.0000000   0.0000000   0.0000000   0.0000000   0.0000000   0.0000000
 AtZNuc=   6.0000000   6.0000000   6.0000000   6.0000000   6.0000000   6.0000000   6.0000000   6.0000000   6.0000000   6.0000000

  Atom        11          12          13          14          15          16          17          18          19          20
 IAtWgt=           1           1           1           1           1           1           1           1           1           1
 AtmWgt=   1.0078250   1.0078250   1.0078250   1.0078250   1.0078250   1.0078250   1.0078250   1.0078250   1.0078250   1.0078250
 NucSpn=           1           1           1           1           1           1           1           1           1           1
 AtZEff=   -0.000000   -0.000000   -0.000000   -0.000000   -0.000000   -0.000000   -0.000000   -0.000000   -0.000000   -0.000000
 NQMom=    0.0000000   0.0000000   0.0000000   0.0000000   0.0000000   0.0000000   0.0000000   0.0000000   0.0000000   0.0000000
 NMagM=    2.7928460   2.7928460   2.7928460   2.7928460   2.7928460   2.7928460   2.7928460   2.7928460   2.7928460   2.7928460
 AtZNuc=   1.0000000   1.0000000   1.0000000   1.0000000   1.0000000   1.0000000   1.0000000   1.0000000   1.0000000   1.0000000

  Atom        21          22          23          24          25          26
 IAtWgt=           1           1           1           1           1           1
 AtmWgt=   1.0078250   1.0078250   1.0078250   1.0078250   1.0078250   1.0078250
 NucSpn=           1           1           1           1           1           1
 AtZEff=   -0.000000   -0.000000   -0.000000   -0.000000   -0.000000   -0.000000
 NQMom=    0.0000000   0.0000000   0.0000000   0.0000000   0.0000000   0.0000000
 NMagM=    2.7928460   2.7928460   2.7928460   2.7928460   2.7928460   2.7928460
 AtZNuc=   1.0000000   1.0000000   1.0000000   1.0000000   1.0000000   1.0000000
 Leave Link  101 at Thu Mar 13 18:33:20 2025, MaxMem=  8589934592 cpu:               0.7 elap:               0.6
 (Enter /Users/vincenzobarone/Documents/gdv28/gdv/l103.exe)

 GradGradGradGradGradGradGradGradGradGradGradGradGradGradGradGradGradGrad
 Berny optimization.
 Initialization pass.
                           ----------------------------
                           !    Initial Parameters    !
                           ! (Angstroms and Degrees)  !
 --------------------------                            --------------------------
 ! Name   Definition             Value          Derivative Info.                !
 --------------------------------------------------------------------------------
 ! Stre1  R(1,2)                 1.5139         estimate D2E/DX2                !
 ! Stre2  R(1,6)                 1.5478         estimate D2E/DX2                !
 ! Stre3  R(1,7)                 1.5898         estimate D2E/DX2                !
 ! Stre4  R(1,18)                1.093          estimate D2E/DX2                !
 ! Stre5  R(2,3)                 1.3203         estimate D2E/DX2                !
 ! Stre6  R(2,10)                1.4967         estimate D2E/DX2                !
 ! Stre7  R(3,4)                 1.4901         estimate D2E/DX2                !
 ! Stre8  R(3,15)                1.0863         estimate D2E/DX2                !
 ! Stre9  R(4,5)                 1.5331         estimate D2E/DX2                !
 ! Stre10 R(4,16)                1.0967         estimate D2E/DX2                !
 ! Stre11 R(4,17)                1.0972         estimate D2E/DX2                !
 ! Stre12 R(5,6)                 1.5422         estimate D2E/DX2                !
 ! Stre13 R(5,7)                 1.5855         estimate D2E/DX2                !
 ! Stre14 R(5,11)                1.0936         estimate D2E/DX2                !
 ! Stre15 R(6,8)                 1.5205         estimate D2E/DX2                !
 ! Stre16 R(6,9)                 1.5274         estimate D2E/DX2                !
 ! Stre17 R(7,19)                1.0911         estimate D2E/DX2                !
 ! Stre18 R(7,20)                1.0882         estimate D2E/DX2                !
 ! Stre19 R(8,21)                1.0889         estimate D2E/DX2                !
 ! Stre20 R(8,22)                1.0946         estimate D2E/DX2                !
 ! Stre21 R(8,23)                1.0946         estimate D2E/DX2                !
 ! Stre22 R(9,24)                1.09           estimate D2E/DX2                !
 ! Stre23 R(9,25)                1.0942         estimate D2E/DX2                !
 ! Stre24 R(9,26)                1.094          estimate D2E/DX2                !
 ! Stre25 R(10,12)               1.0914         estimate D2E/DX2                !
 ! Stre26 R(10,13)               1.0948         estimate D2E/DX2                !
 ! Stre27 R(10,14)               1.0951         estimate D2E/DX2                !
 ! Rock1  GIC-134                0.0337         estimate D2E/DX2                !
 ! Rock2  GIC-139                0.0629         estimate D2E/DX2                !
 ! Rock3  GIC-157                0.0694         estimate D2E/DX2                !
 ! Rock4  GIC-174               -0.025          estimate D2E/DX2                !
 ! Bend5  GIC-199               -0.0356         estimate D2E/DX2                !
 ! Bend6  GIC-203                0.002          estimate D2E/DX2                !
 ! Bend7  GIC-219               -0.0344         estimate D2E/DX2                !
 ! Bend8  GIC-223               -0.0065         estimate D2E/DX2                !
 ! Rock9  GIC-248                0.0347         estimate D2E/DX2                !
 ! Rock10 GIC-252                0.0669         estimate D2E/DX2                !
 ! Bend11 GIC-277               -0.063          estimate D2E/DX2                !
 ! Bend12 GIC-281                0.0646         estimate D2E/DX2                !
 ! Bend13 GIC-298               -0.0616         estimate D2E/DX2                !
 ! Bend14 GIC-302                0.0609         estimate D2E/DX2                !
 ! Bend15 GIC-327               -0.044          estimate D2E/DX2                !
 ! Bend16 GIC-331                0.0237         estimate D2E/DX2                !
 ! Bend17 GIC-348               -0.0457         estimate D2E/DX2                !
 ! Bend18 GIC-352                0.0368         estimate D2E/DX2                !
 ! Bend19 GIC-377                0.0329         estimate D2E/DX2                !
 ! Bend20 GIC-381                0.0196         estimate D2E/DX2                !
 ! Bend21 GIC-398                0.032          estimate D2E/DX2                !
 ! Bend22 GIC-402                0.0146         estimate D2E/DX2                !
 ! Ang23  A(22,8,23)           107.397          estimate D2E/DX2                !
 ! Bend24 GIC-433                0.0377         estimate D2E/DX2                !
 ! Bend25 GIC-437                0.0204         estimate D2E/DX2                !
 ! Bend26 GIC-454                0.0371         estimate D2E/DX2                !
 ! Bend27 GIC-458                0.0208         estimate D2E/DX2                !
 ! Ang28  A(25,9,26)           107.651          estimate D2E/DX2                !
 ! Bend29 GIC-489               -0.0345         estimate D2E/DX2                !
 ! Bend30 GIC-493                0.0026         estimate D2E/DX2                !
 ! Bend31 GIC-509               -0.0149         estimate D2E/DX2                !
 ! Bend32 GIC-513                0.0006         estimate D2E/DX2                !
 ! Ang33  A(2,10,12)           111.53           estimate D2E/DX2                !
 ! RDef34 GIC-548               -0.1607         estimate D2E/DX2                !
 ! RDef35 GIC-591                0.2558         estimate D2E/DX2                !
 ! RDef36 GIC-600               -0.314          estimate D2E/DX2                !
 ! RDef37 GIC-613               -0.3519         estimate D2E/DX2                !
 ! Dihe1  D(3,2,10,12)           0.782          estimate D2E/DX2                !
 ! Dihe2  D(1,6,8,21)          -48.77           estimate D2E/DX2                !
 ! Dihe3  D(1,6,9,24)           46.542          estimate D2E/DX2                !
 ! RPck4  GIC-886                0.0006         estimate D2E/DX2                !
 ! RPck5  GIC-1098               0.0136         estimate D2E/DX2                !
 ! RPck6  GIC-1107               0.0135         estimate D2E/DX2                !
 ! RPck7  GIC-1119               0.0136         estimate D2E/DX2                !
 ! OuPl1  U(2,1,3,10)            0.252          estimate D2E/DX2                !
 ! OuPl2  U(3,2,4,15)           -1.194          estimate D2E/DX2                !
 --------------------------------------------------------------------------------
 NOTE: GIC-type coordinates are in arbitrary units.
 Trust Radius=3.00D-01 FncErr=1.00D-07 GrdErr=1.00D-07 EigMax=2.50D+02 EigMin=1.00D-04
 Number of steps in this run=     83 maximum allowed number of steps=    146.
 GradGradGradGradGradGradGradGradGradGradGradGradGradGradGradGradGradGrad

 Leave Link  103 at Thu Mar 13 18:33:20 2025, MaxMem=  8589934592 cpu:               0.0 elap:               0.0
 (Enter /Users/vincenzobarone/Documents/gdv28/gdv/l202.exe)
                          Input orientation:                          
 ---------------------------------------------------------------------
 Center     Atomic      Atomic             Coordinates (Angstroms)
 Number     Number       Type             X           Y           Z
 ---------------------------------------------------------------------
      1          6           0       -0.159960   -0.956400    0.130113
      2          6           0       -1.396136   -0.216412   -0.334934
      3          6           0       -1.450911    1.100700   -0.407816
      4          6           0       -0.233201    1.857836   -0.002319
      5          6           0        0.967966    1.023108    0.456856
      6          6           0        1.239139   -0.488440    0.598359
      7          6           0       -0.478785    0.592963   -0.028554
      8          6           0        1.718597   -0.976912    1.956092
      9          6           0        2.297379   -0.923977   -0.413266
     10          6           0       -2.563942   -1.070567   -0.718024
     11          1           0        1.414395    1.116699   -0.537077
     12          1           0       -3.407012   -0.466964   -1.058686
     13          1           0       -2.291364   -1.768655   -1.516124
     14          1           0       -2.893078   -1.676386    0.132798
     15          1           0       -2.345351    1.629026   -0.725459
     16          1           0        0.086806    2.491504   -0.838268
     17          1           0       -0.505445    2.562118    0.793746
     18          1           0        0.132148   -1.134778   -0.907916
     19          1           0       -1.311732    0.955825    0.575623
     20          1           0       -0.654962    0.873192   -1.065189
     21          1           0        0.974917   -0.842743    2.740083
     22          1           0        1.968979   -2.041386    1.907604
     23          1           0        2.626810   -0.440032    2.247738
     24          1           0        2.017372   -0.714141   -1.445577
     25          1           0        3.242391   -0.410010   -0.213108
     26          1           0        2.480179   -1.999268   -0.328594
 ---------------------------------------------------------------------
                    Distance matrix (angstroms):
                    1          2          3          4          5
     1  C    0.000000
     2  C    1.513929   0.000000
     3  C    2.487486   1.320264   0.000000
     4  C    2.818303   2.401158   1.490134   0.000000
     5  C    2.301614   2.784299   2.569950   1.533107   0.000000
     6  C    1.547811   2.808863   3.282397   2.834363   1.542186
     7  C    1.589765   1.261147   1.160459   1.288761   1.585476
     8  C    2.619846   3.940649   4.466577   3.959884   2.609833
     9  C    2.516908   3.761494   4.260168   3.783015   2.513084
    10  C    2.551765   1.496700   2.459567   3.810530   4.270620
    11  H    2.687280   3.117232   2.868265   1.884097   1.093600
    12  H    3.492297   2.151793   2.589890   4.073534   4.863909
    13  H    2.812959   2.146182   3.188715   4.436110   4.723327
    14  H    2.826362   2.142692   3.175581   4.425373   4.722281
    15  H    3.491757   2.111673   1.086300   2.244206   3.569744
    16  H    3.589805   3.128142   2.117593   1.096700   2.147086
    17  H    3.597185   3.128495   2.115041   1.097200   2.157078
    18  H    1.093000   1.872793   2.784518   3.147908   2.686572
    19  H    2.276327   1.486735   1.003749   1.520154   2.283781
    20  H    2.240799   1.506602   1.057087   1.509006   2.230021
    21  H    2.848299   3.933181   4.423899   4.034036   2.948656
    22  H    2.978094   4.436609   5.189367   4.868402   3.535226
    23  H    3.537945   4.785843   5.104276   4.303791   2.846015
    24  H    2.698567   3.623989   4.049640   3.709871   2.781823
    25  H    3.462995   4.644163   4.934292   4.155394   2.770503
    26  H    2.875468   4.266665   5.006950   4.727171   3.469651
                    6          7          8          9         10
     6  C    0.000000
     7  C    2.124551   0.000000
     8  C    1.520500   3.351389   0.000000
     9  C    1.527400   3.186879   2.439600   0.000000
    10  C    4.066346   2.755102   5.049733   4.873070   0.000000
    11  H    1.973931   2.029045   3.269807   2.226960   4.543572
    12  H    4.932847   3.280111   5.968316   5.758950   1.091400
    13  H    4.309807   3.327994   5.363107   4.794407   1.094800
    14  H    4.324717   3.317347   5.008114   5.273059   1.095100
    15  H    4.368607   2.245701   5.522436   5.307564   2.708439
    16  H    3.503119   2.140091   4.743532   4.090571   4.441766
    17  H    3.519610   2.134117   4.338448   4.633094   4.440638
    18  H    1.977890   2.032635   3.277847   2.230996   2.703532
    19  H    2.931444   1.091100   3.850202   4.187749   2.710686
    20  H    2.865145   1.088200   4.264364   3.517263   2.746440
    21  H    2.186852   3.440909   1.088900   3.420397   4.953174
    22  H    2.158339   4.084122   1.094600   2.596707   5.327644
    23  H    2.156020   3.986641   1.094600   2.724642   6.011425
    24  H    2.198696   3.153930   3.424860   1.090000   4.652399
    25  H    2.162787   3.858389   2.710859   1.094200   5.865559
    26  H    2.163798   3.945270   2.616297   1.094000   5.143666
                   11         12         13         14         15
    11  H    0.000000
    12  H    5.101571   0.000000
    13  H    4.797546   1.774350   0.000000
    14  H    5.177294   1.773827   1.757702   0.000000
    15  H    3.799165   2.373044   3.488882   3.458664   0.000000
    16  H    1.934760   4.583436   4.925864   5.214785   2.583018
    17  H    2.747018   4.585404   5.223083   4.909435   2.562011
    18  H    2.617409   3.604769   2.577814   3.244752   3.716168
    19  H    2.948856   3.014215   3.571816   3.102464   1.792870
    20  H    2.149520   3.061019   3.140144   3.597872   1.882582
    21  H    3.843479   5.811467   5.444373   4.738594   5.398500
    22  H    4.032063   6.338687   5.472368   5.188714   6.246470
    23  H    3.412998   6.880419   6.334061   6.039098   6.151690
    24  H    2.130946   5.443778   4.436460   5.246875   5.004233
    25  H    2.403615   6.703194   5.845187   6.274340   5.970178
    26  H    3.299790   6.126990   4.922502   5.402686   6.050434
                   16         17         18         19         20
    16  H    0.000000
    17  H    1.737590   0.000000
    18  H    3.627235   4.119371   0.000000
    19  H    2.512629   1.810484   2.942159   0.000000
    20  H    1.794616   2.516042   2.162457   1.769305   0.000000
    21  H    4.970970   4.191990   3.755454   3.626086   4.481187
    22  H    5.624010   5.343753   3.481815   4.639021   4.921111
    23  H    4.956708   4.575808   4.082176   4.500722   4.844592
    24  H    3.791051   4.702451   2.005015   4.237567   3.131404
    25  H    4.332127   4.888105   3.268281   4.819506   4.190705
    26  H    5.114200   5.565953   2.568308   4.891704   4.315404
                   21         22         23         24         25
    21  H    0.000000
    22  H    1.765765   0.000000
    23  H    1.770122   1.764304   0.000000
    24  H    4.315437   3.606625   3.753282   0.000000
    25  H    3.748338   2.963172   2.536850   1.764128   0.000000
    26  H    3.608343   2.294271   3.014997   1.764481   1.766366
                   26
    26  H    0.000000
 Stoichiometry    C10H16
 Framework group  C1[X(C10H16)]
 Deg. of freedom    72
 Full point group                 C1      NOp   1
 Largest Abelian subgroup         C1      NOp   1
 Largest concise Abelian subgroup C1      NOp   1
                         Standard orientation:                         
 ---------------------------------------------------------------------
 Center     Atomic      Atomic             Coordinates (Angstroms)
 Number     Number       Type             X           Y           Z
 ---------------------------------------------------------------------
      1          6           0        0.036364   -0.942007    0.056196
      2          6           0       -1.406212   -0.483247    0.033892
      3          6           0       -1.746532    0.792394    0.029340
      4          6           0       -0.642820    1.793233    0.054657
      5          6           0        0.784623    1.234461    0.079104
      6          6           0        1.386539   -0.185398    0.073119
      7          6           0       -0.622798    0.504651    0.062377
      8          6           0        2.360697   -0.524032    1.190376
      9          6           0        2.133741   -0.428070   -1.236748
     10          6           0       -2.436952   -1.568207    0.010515
     11          1           0        0.863623    1.385933   -1.001070
     12          1           0       -3.448261   -1.159238   -0.023426
     13          1           0       -2.296674   -2.220769   -0.857282
     14          1           0       -2.349123   -2.201594    0.899532
     15          1           0       -2.782893    1.117971    0.030807
     16          1           0       -0.740016    2.452482   -0.816373
     17          1           0       -0.784687    2.451861    0.920642
     18          1           0        0.013411   -1.089409   -1.026576
     19          1           0       -1.275979    0.709331    0.912058
     20          1           0       -1.171900    0.711019   -0.854181
     21          1           0        1.893578   -0.519470    2.173983
     22          1           0        2.792581   -1.516458    1.026928
     23          1           0        3.186088    0.194869    1.198038
     24          1           0        1.504063   -0.311545   -2.118807
     25          1           0        2.968804    0.273047   -1.328279
     26          1           0        2.547491   -1.440682   -1.252955
 ---------------------------------------------------------------------
 Rotational constants (GHZ):           2.4361942           1.1871378           0.9753167
 Leave Link  202 at Thu Mar 13 18:33:20 2025, MaxMem=  8589934592 cpu:               0.0 elap:               0.0
 (Enter /Users/vincenzobarone/Documents/gdv28/gdv/l301.exe)
 Standard basis: STO-3G (5D, 7F)
 Ernie: Thresh=  0.10000D-02 Tol=  0.10000D-05 Strict=F.
 There are    66 symmetry adapted cartesian basis functions of A   symmetry.
 There are    66 symmetry adapted basis functions of A   symmetry.
    66 basis functions,   198 primitive gaussians,    66 cartesian basis functions
    38 alpha electrons       38 beta electrons
       nuclear repulsion energy       597.4952166481 Hartrees.
 IExCor=         0 DFT=F Ex=HF Corr=None N6=None ScaHFX=  1.000000
 ScaDFX=  1.000000  1.000000  1.000000  1.000000  1.000000  0.000000
 ScaDFX=  0.000000  0.000000  0.000000  0.000000  0.000000  0.000000
 Grid=UltraFine IRanWt=     -1 IRanGd=            0 ICorTp=0 IEDCtl=  2004
 NAtoms=   26 NActive=   26 NUniq=   26 SFac= 1.00D+00 NAtFMM=   60 NAOKFM=F Big=F
 Integral buffers will be    131072 words long.
 Raffenetti 1 integral format.
 Two-electron integral symmetry is turned on.
 Leave Link  301 at Thu Mar 13 18:33:20 2025, MaxMem=  8589934592 cpu:               0.0 elap:               0.0
 (Enter /Users/vincenzobarone/Documents/gdv28/gdv/l302.exe)
 NPDir=0 NMtPBC=     1 NCelOv=     1 NCel=       1 NClECP=     1 NCelD=      1
         NCelK=      1 NCelE2=     1 NClLst=     1 CellRange=     0.0.
 One-electron integrals computed using PRISM.
 One-electron integral symmetry used in STVInt
 NBasis=    66 RedAO= T EigKep=  9.59D-02  NBF=    66
 NBsUse=    66 1.00D-06 EigRej= -1.00D+00 NBFU=    66
 Leave Link  302 at Thu Mar 13 18:33:20 2025, MaxMem=  8589934592 cpu:               0.1 elap:               0.0
 (Enter /Users/vincenzobarone/Documents/gdv28/gdv/l303.exe)
 DipDrv:  MaxL=1.
 Leave Link  303 at Thu Mar 13 18:33:20 2025, MaxMem=  8589934592 cpu:               0.0 elap:               0.0
 (Enter /Users/vincenzobarone/Documents/gdv28/gdv/l401.exe)
 ExpMin= 1.69D-01 ExpMax= 7.16D+01 ExpMxC= 7.16D+01 IAcc=3 Grid=UltraFine AccDes= 0.00D+00
 Harris functional with IExCor= 2005 and Grid=UltraFine diagonalized for initial guess.
 HarFok:  IExCor=    2005 AccDes= 0.00D+00 Grid=UltraFine IDoV= 1 UseB2=F ITyADJ=14 ICtDFT=  3500011
 FoFCou: FMM=F IPFlag=           0 FMFlag=      100000 FMFlg1=           0
         NFxFlg=           0 DoJE=T BraDBF=F KetDBF=T FulRan=T
         wScrn=  0.000000 ICntrl=       500 IOpCl=  0 I1Cent=   200000004 NGrid=           0
         NMat0=    1 NMatS0=      1 NMatT0=    0 NMatD0=    1 NMtDS0=    0 NMtDT0=    0
 Petite list used in FoFCou.
 Harris En= -382.364613337592    
 JPrj=0 DoOrth=F DoCkMO=F.
 Leave Link  401 at Thu Mar 13 18:33:20 2025, MaxMem=  8589934592 cpu:               1.5 elap:               0.2
 (Enter /Users/vincenzobarone/Documents/gdv28/gdv/l502.exe)
 Integral symmetry usage will be decided dynamically.
 Closed shell SCF:
 Using DIIS extrapolation, IDIIS=  1040.
 NGot=  8589934592 LenX=  8589919390 LenY=  8589914593
 Requested convergence on RMS density matrix=1.00D-08 within 128 cycles.
 Requested convergence on MAX density matrix=1.00D-06.
 Requested convergence on             energy=1.00D-06.
 No special actions if energy rises.
 Fock matrices will be formed incrementally for  20 cycles.
 Integral accuracy reduced to 1.0D-05 until final iterations.

 Cycle   1  Pass 0  IDiag  1:
 FoFJK:  IHMeth= 1 ICntrl=       0 DoSepK=F KAlg= 0 I1Cent=           0 FoldK=F
 IRaf= 960000000 NMat=       1 IRICut=       1 DoRegI=T DoRafI=F ISym2E= 0 IDoP0=0 IntGTp=1.
 FoFCou: FMM=F IPFlag=           0 FMFlag=      100000 FMFlg1=           0
         NFxFlg=           0 DoJE=F BraDBF=F KetDBF=F FulRan=T
         wScrn=  0.000000 ICntrl=         0 IOpCl=  0 I1Cent=           0 NGrid=           0
         NMat0=    1 NMatS0=      1 NMatT0=    0 NMatD0=    1 NMtDS0=    0 NMtDT0=    0
 Symmetry not used in FoFCou.
 E= -380.949605780761    
 DIIS: error= 4.52D-02 at cycle   1 NSaved=   1.
 NSaved= 1 IEnMin= 1 EnMin= -380.949605780761     IErMin= 1 ErrMin= 4.52D-02
 ErrMax= 4.52D-02  0.00D+00 EMaxC= 1.00D-01 BMatC= 1.42D-01 BMatP= 1.42D-01
 Rises=F IDIUse=3 WtCom= 5.48D-01 WtEn= 4.52D-01
 Coeff-Com:  0.100D+01
 Coeff-En:   0.100D+01
 Coeff:      0.100D+01
 Gap=     0.238 Goal=   None    Shift=    0.000
 GapD=    0.238 DampG=1.000 DampE=0.500 DampFc=0.5000 IDamp=-1.
 Damping current iteration by 5.00D-01
 RMSDP=1.34D-02 MaxDP=1.34D-01              OVMax= 0.00D+00

 Cycle   2  Pass 0  IDiag  1:
 RMSU=  6.64D-03    CP:  9.91D-01
 E= -381.111501739109     Delta-E=       -0.161895958348 Rises=F Damp=T AM=F Ri=F Fa=F
 DIIS: error= 2.00D-02 at cycle   2 NSaved=   2.
 NSaved= 2 IEnMin= 2 EnMin= -381.111501739109     IErMin= 2 ErrMin= 2.00D-02
 ErrMax= 2.00D-02  0.00D+00 EMaxC= 1.00D-01 BMatC= 3.05D-02 BMatP= 1.42D-01
 Rises=F IDIUse=3 WtCom= 8.00D-01 WtEn= 2.00D-01
 Coeff-Com: -0.756D+00 0.176D+01
 Coeff-En:   0.000D+00 0.100D+01
 Coeff:     -0.605D+00 0.161D+01
 Gap=     0.305 Goal=   None    Shift=    0.000
 RMSDP=5.43D-03 MaxDP=5.93D-02 DE=-1.62D-01 OVMax= 0.00D+00

 Cycle   3  Pass 0  IDiag  1:
 RMSU=  2.79D-03    CP:  9.87D-01  1.70D+00
 E= -381.264729080892     Delta-E=       -0.153227341783 Rises=F Damp=F AM=F Ri=F Fa=F
 DIIS: error= 3.18D-03 at cycle   3 NSaved=   3.
 NSaved= 3 IEnMin= 3 EnMin= -381.264729080892     IErMin= 3 ErrMin= 3.18D-03
 ErrMax= 3.18D-03  0.00D+00 EMaxC= 1.00D-01 BMatC= 3.62D-04 BMatP= 3.05D-02
 Rises=F IDIUse=3 WtCom= 9.82D-01 WtEn= 1.79D-02
 Coeff-Com: -0.557D-01 0.897D-01 0.966D+00
 Coeff-En:   0.000D+00 0.000D+00 0.100D+01
 Coeff:     -0.547D-01 0.881D-01 0.967D+00
 Gap=     0.298 Goal=   None    Shift=    0.000
 RMSDP=1.45D-03 MaxDP=2.14D-02 DE=-1.53D-01 OVMax= 0.00D+00

 Cycle   4  Pass 0  IDiag  1:
 RMSU=  1.21D-03    CP:  9.86D-01  1.78D+00  1.22D+00
 E= -381.267100902161     Delta-E=       -0.002371821268 Rises=F Damp=F AM=F Ri=F Fa=F
 DIIS: error= 1.84D-03 at cycle   4 NSaved=   4.
 NSaved= 4 IEnMin= 4 EnMin= -381.267100902161     IErMin= 4 ErrMin= 1.84D-03
 ErrMax= 1.84D-03  0.00D+00 EMaxC= 1.00D-01 BMatC= 9.09D-05 BMatP= 3.62D-04
 Rises=F IDIUse=3 WtCom= 9.92D-01 WtEn= 7.88D-03
 Coeff-Com:  0.492D-01-0.108D+00 0.314D-01 0.103D+01
 Coeff-En:   0.000D+00 0.000D+00 0.000D+00 0.100D+01
 Coeff:      0.488D-01-0.107D+00 0.312D-01 0.103D+01
 Gap=     0.302 Goal=   None    Shift=    0.000
 RMSDP=1.12D-03 MaxDP=1.69D-02 DE=-2.37D-03 OVMax= 0.00D+00

 Cycle   5  Pass 0  IDiag  1:
 RMSU=  4.89D-04    CP:  9.86D-01  1.81D+00  1.46D+00  1.59D+00
 E= -381.268200476961     Delta-E=       -0.001099574800 Rises=F Damp=F AM=F Ri=F Fa=F
 DIIS: error= 1.55D-03 at cycle   5 NSaved=   5.
 NSaved= 5 IEnMin= 5 EnMin= -381.268200476961     IErMin= 5 ErrMin= 1.55D-03
 ErrMax= 1.55D-03  0.00D+00 EMaxC= 1.00D-01 BMatC= 4.02D-05 BMatP= 9.09D-05
 Rises=F IDIUse=3 WtCom= 9.94D-01 WtEn= 6.10D-03
 Coeff-Com:  0.184D-01-0.330D-01-0.813D-01-0.140D+00 0.124D+01
 Coeff-En:   0.000D+00 0.000D+00 0.000D+00 0.000D+00 0.100D+01
 Coeff:      0.183D-01-0.328D-01-0.808D-01-0.139D+00 0.123D+01
 Gap=     0.306 Goal=   None    Shift=    0.000
 RMSDP=1.19D-03 MaxDP=1.90D-02 DE=-1.10D-03 OVMax= 0.00D+00

 Cycle   6  Pass 0  IDiag  1:
 RMSU=  2.25D-04    CP:  9.86D-01  1.85D+00  1.65D+00  2.29D+00  2.17D+00
 E= -381.269078475653     Delta-E=       -0.000877998692 Rises=F Damp=F AM=F Ri=F Fa=F
 DIIS: error= 1.33D-03 at cycle   6 NSaved=   6.
 NSaved= 6 IEnMin= 6 EnMin= -381.269078475653     IErMin= 6 ErrMin= 1.33D-03
 ErrMax= 1.33D-03  0.00D+00 EMaxC= 1.00D-01 BMatC= 2.70D-05 BMatP= 4.02D-05
 Rises=F IDIUse=3 WtCom= 9.98D-01 WtEn= 1.51D-03
 Coeff-Com: -0.900D-03 0.287D-02 0.979D-01-0.179D+00-0.788D+00 0.187D+01
 Coeff-En:   0.000D+00 0.000D+00 0.000D+00 0.000D+00 0.000D+00 0.100D+01
 Coeff:     -0.899D-03 0.286D-02 0.977D-01-0.178D+00-0.787D+00 0.187D+01
 Gap=     0.309 Goal=   None    Shift=    0.000
 RMSDP=1.63D-03 MaxDP=2.54D-02 DE=-8.78D-04 OVMax= 0.00D+00

 Cycle   7  Pass 0  IDiag  1:
 RMSU=  6.20D-04    CP:  9.85D-01  1.88D+00  1.86D+00  3.00D+00  3.00D+00
                    CP:  2.60D+00
 E= -381.270032383022     Delta-E=       -0.000953907370 Rises=F Damp=F AM=F Ri=F Fa=F
 DIIS: error= 1.02D-03 at cycle   7 NSaved=   7.
 NSaved= 7 IEnMin= 7 EnMin= -381.270032383022     IErMin= 7 ErrMin= 1.02D-03
 ErrMax= 1.02D-03  0.00D+00 EMaxC= 1.00D-01 BMatC= 1.81D-05 BMatP= 2.70D-05
 Rises=F IDIUse=3 WtCom= 1.00D+00 WtEn= 1.85D-04
 Coeff-Com:  0.669D-02-0.195D-01 0.166D+00 0.410D+00-0.147D+01-0.347D+00
 Coeff-Com:  0.225D+01
 Coeff-En:   0.000D+00 0.000D+00 0.000D+00 0.000D+00 0.000D+00 0.000D+00
 Coeff-En:   0.100D+01
 Coeff:      0.669D-02-0.195D-01 0.166D+00 0.410D+00-0.147D+01-0.347D+00
 Coeff:      0.225D+01
 Gap=     0.315 Goal=   None    Shift=    0.000
 RMSDP=2.65D-03 MaxDP=3.78D-02 DE=-9.54D-04 OVMax= 0.00D+00

 Cycle   8  Pass 0  IDiag  1:
 RMSU=  1.52D-03    CP:  9.84D-01  1.93D+00  2.16D+00  3.00D+00  3.00D+00
                    CP:  3.00D+00  3.00D+00
 E= -381.271031826793     Delta-E=       -0.000999443771 Rises=F Damp=F AM=F Ri=F Fa=F
 DIIS: error= 5.32D-04 at cycle   8 NSaved=   8.
 NSaved= 8 IEnMin= 8 EnMin= -381.271031826793     IErMin= 8 ErrMin= 5.32D-04
 ErrMax= 5.32D-04  0.00D+00 EMaxC= 1.00D-01 BMatC= 5.22D-06 BMatP= 1.81D-05
 Rises=F IDIUse=3 WtCom= 1.00D+00 WtEn= 0.00D+00
 Coeff-Com:  0.853D-02-0.149D-01-0.506D-01-0.121D+00 0.754D+00 0.144D-01
 Coeff-Com: -0.149D+01 0.190D+01
 Coeff-En:   0.000D+00 0.000D+00 0.000D+00 0.000D+00 0.000D+00 0.000D+00
 Coeff-En:   0.000D+00 0.100D+01
 Coeff:      0.853D-02-0.149D-01-0.506D-01-0.121D+00 0.754D+00 0.144D-01
 Coeff:     -0.149D+01 0.190D+01
 Gap=     0.316 Goal=   None    Shift=    0.000
 RMSDP=1.17D-03 MaxDP=1.62D-02 DE=-9.99D-04 OVMax= 0.00D+00

 Cycle   9  Pass 0  IDiag  1:
 RMSU=  5.41D-04    CP:  9.83D-01  1.94D+00  2.27D+00  3.00D+00  3.00D+00
                    CP:  3.00D+00  3.00D+00  1.65D+00
 E= -381.271247316387     Delta-E=       -0.000215489594 Rises=F Damp=F AM=F Ri=F Fa=F
 DIIS: error= 2.72D-04 at cycle   9 NSaved=   9.
 NSaved= 9 IEnMin= 9 EnMin= -381.271247316387     IErMin= 9 ErrMin= 2.72D-04
 ErrMax= 2.72D-04  0.00D+00 EMaxC= 1.00D-01 BMatC= 1.07D-06 BMatP= 5.22D-06
 Rises=F IDIUse=3 WtCom= 1.00D+00 WtEn= 0.00D+00
 Coeff-Com: -0.821D-03 0.268D-02-0.319D-01-0.765D-01 0.269D+00 0.120D+00
 Coeff-Com: -0.568D+00 0.856D-01 0.120D+01
 Coeff-En:   0.000D+00 0.000D+00 0.000D+00 0.000D+00 0.000D+00 0.000D+00
 Coeff-En:   0.000D+00 0.000D+00 0.100D+01
 Coeff:     -0.821D-03 0.268D-02-0.319D-01-0.765D-01 0.269D+00 0.120D+00
 Coeff:     -0.568D+00 0.856D-01 0.120D+01
 Gap=     0.317 Goal=   None    Shift=    0.000
 RMSDP=5.44D-04 MaxDP=7.31D-03 DE=-2.15D-04 OVMax= 0.00D+00

 Cycle  10  Pass 0  IDiag  1:
 RMSU=  5.39D-05    CP:  9.83D-01  1.95D+00  2.32D+00  3.00D+00  3.00D+00
                    CP:  3.00D+00  3.00D+00  1.95D+00  1.47D+00
 E= -381.271290973093     Delta-E=       -0.000043656706 Rises=F Damp=F AM=F Ri=F Fa=F
 DIIS: error= 1.68D-04 at cycle  10 NSaved=  10.
 NSaved=10 IEnMin=10 EnMin= -381.271290973093     IErMin=10 ErrMin= 1.68D-04
 ErrMax= 1.68D-04  0.00D+00 EMaxC= 1.00D-01 BMatC= 2.85D-07 BMatP= 1.07D-06
 Rises=F IDIUse=3 WtCom= 1.00D+00 WtEn= 0.00D+00
 Coeff-Com: -0.140D-02 0.243D-02 0.127D-01 0.129D-01-0.139D+00 0.562D-01
 Coeff-Com:  0.231D+00-0.369D+00-0.408D+00 0.160D+01
 Coeff-En:   0.000D+00 0.000D+00 0.000D+00 0.000D+00 0.000D+00 0.000D+00
 Coeff-En:   0.000D+00 0.000D+00 0.000D+00 0.100D+01
 Coeff:     -0.140D-02 0.243D-02 0.127D-01 0.129D-01-0.139D+00 0.562D-01
 Coeff:      0.231D+00-0.369D+00-0.408D+00 0.160D+01
 Gap=     0.318 Goal=   None    Shift=    0.000
 RMSDP=2.84D-04 MaxDP=3.43D-03 DE=-4.37D-05 OVMax= 0.00D+00

 Cycle  11  Pass 0  IDiag  1:
 RMSU=  4.51D-05    CP:  9.83D-01  1.95D+00  2.34D+00  3.00D+00  3.00D+00
                    CP:  3.00D+00  3.00D+00  2.09D+00  1.76D+00  2.30D+00
 E= -381.271301257564     Delta-E=       -0.000010284472 Rises=F Damp=F AM=F Ri=F Fa=F
 DIIS: error= 5.95D-05 at cycle  11 NSaved=  11.
 NSaved=11 IEnMin=11 EnMin= -381.271301257564     IErMin=11 ErrMin= 5.95D-05
 ErrMax= 5.95D-05  0.00D+00 EMaxC= 1.00D-01 BMatC= 6.70D-08 BMatP= 2.85D-07
 Rises=F IDIUse=1 WtCom= 1.00D+00 WtEn= 0.00D+00
 Coeff-Com:  0.235D-03-0.821D-03 0.844D-02 0.195D-01-0.751D-01-0.217D-01
 Coeff-Com:  0.137D+00 0.730D-02-0.255D+00-0.508D-01 0.123D+01
 Coeff:      0.235D-03-0.821D-03 0.844D-02 0.195D-01-0.751D-01-0.217D-01
 Coeff:      0.137D+00 0.730D-02-0.255D+00-0.508D-01 0.123D+01
 Gap=     0.318 Goal=   None    Shift=    0.000
 RMSDP=5.58D-05 MaxDP=7.11D-04 DE=-1.03D-05 OVMax= 0.00D+00

 Cycle  12  Pass 0  IDiag  1:
 RMSU=  1.82D-05    CP:  9.83D-01  1.95D+00  2.34D+00  3.00D+00  3.00D+00
                    CP:  3.00D+00  3.00D+00  2.10D+00  1.80D+00  2.95D+00
                    CP:  1.61D+00
 E= -381.271302838461     Delta-E=       -0.000001580897 Rises=F Damp=F AM=F Ri=F Fa=F
 DIIS: error= 4.23D-05 at cycle  12 NSaved=  12.
 NSaved=12 IEnMin=12 EnMin= -381.271302838461     IErMin=12 ErrMin= 4.23D-05
 ErrMax= 4.23D-05  0.00D+00 EMaxC= 1.00D-01 BMatC= 2.69D-08 BMatP= 6.70D-08
 Rises=F IDIUse=1 WtCom= 1.00D+00 WtEn= 0.00D+00
 Coeff-Com: -0.130D-04 0.185D-03-0.463D-02-0.978D-02 0.455D-01 0.119D-01
 Coeff-Com: -0.952D-01 0.482D-01 0.124D+00-0.140D+00-0.776D+00 0.180D+01
 Coeff:     -0.130D-04 0.185D-03-0.463D-02-0.978D-02 0.455D-01 0.119D-01
 Coeff:     -0.952D-01 0.482D-01 0.124D+00-0.140D+00-0.776D+00 0.180D+01
 Gap=     0.318 Goal=   None    Shift=    0.000
 RMSDP=5.22D-05 MaxDP=7.54D-04 DE=-1.58D-06 OVMax= 0.00D+00

 Cycle  13  Pass 0  IDiag  1:
 RMSU=  2.73D-05    CP:  9.83D-01  1.95D+00  2.34D+00  3.00D+00  3.00D+00
                    CP:  3.00D+00  3.00D+00  2.11D+00  1.83D+00  3.00D+00
                    CP:  2.22D+00  2.51D+00
 E= -381.271303938580     Delta-E=       -0.000001100119 Rises=F Damp=F AM=F Ri=F Fa=F
 DIIS: error= 2.80D-05 at cycle  13 NSaved=  13.
 NSaved=13 IEnMin=13 EnMin= -381.271303938580     IErMin=13 ErrMin= 2.80D-05
 ErrMax= 2.80D-05  0.00D+00 EMaxC= 1.00D-01 BMatC= 1.50D-08 BMatP= 2.69D-08
 Rises=F IDIUse=1 WtCom= 1.00D+00 WtEn= 0.00D+00
 Coeff-Com: -0.431D-03 0.853D-03-0.506D-03-0.292D-03-0.757D-02 0.464D-02
 Coeff-Com:  0.182D-01-0.657D-01-0.728D-02 0.350D+00-0.718D+00-0.394D+00
 Coeff-Com:  0.182D+01
 Coeff:     -0.431D-03 0.853D-03-0.506D-03-0.292D-03-0.757D-02 0.464D-02
 Coeff:      0.182D-01-0.657D-01-0.728D-02 0.350D+00-0.718D+00-0.394D+00
 Coeff:      0.182D+01
 Gap=     0.318 Goal=   None    Shift=    0.000
 RMSDP=5.27D-05 MaxDP=7.82D-04 DE=-1.10D-06 OVMax= 0.00D+00

 Cycle  14  Pass 0  IDiag  1:
 RMSU=  2.57D-05    CP:  9.83D-01  1.95D+00  2.34D+00  3.00D+00  3.00D+00
                    CP:  3.00D+00  3.00D+00  2.12D+00  1.84D+00  3.00D+00
                    CP:  2.79D+00  3.00D+00  2.06D+00
 E= -381.271304642187     Delta-E=       -0.000000703607 Rises=F Damp=F AM=F Ri=F Fa=F
 DIIS: error= 1.39D-05 at cycle  14 NSaved=  14.
 NSaved=14 IEnMin=14 EnMin= -381.271304642187     IErMin=14 ErrMin= 1.39D-05
 ErrMax= 1.39D-05  0.00D+00 EMaxC= 1.00D-01 BMatC= 3.97D-09 BMatP= 1.50D-08
 Rises=F IDIUse=1 WtCom= 1.00D+00 WtEn= 0.00D+00
 Coeff-Com: -0.102D-03 0.122D-03 0.193D-02 0.443D-02-0.208D-01-0.410D-02
 Coeff-Com:  0.453D-01-0.291D-01-0.504D-01 0.684D-01 0.288D+00-0.506D+00
 Coeff-Com: -0.477D+00 0.168D+01
 Coeff:     -0.102D-03 0.122D-03 0.193D-02 0.443D-02-0.208D-01-0.410D-02
 Coeff:      0.453D-01-0.291D-01-0.504D-01 0.684D-01 0.288D+00-0.506D+00
 Coeff:     -0.477D+00 0.168D+01
 Gap=     0.318 Goal=   None    Shift=    0.000
 RMSDP=3.62D-05 MaxDP=4.82D-04 DE=-7.04D-07 OVMax= 0.00D+00

 Cycle  15  Pass 0  IDiag  1:
 RMSU=  8.84D-06    CP:  9.83D-01  1.95D+00  2.34D+00  3.00D+00  3.00D+00
                    CP:  3.00D+00  3.00D+00  2.11D+00  1.84D+00  3.00D+00
                    CP:  3.00D+00  3.00D+00  2.75D+00  1.96D+00
 E= -381.271304837198     Delta-E=       -0.000000195012 Rises=F Damp=F AM=F Ri=F Fa=F
 DIIS: error= 5.39D-06 at cycle  15 NSaved=  15.
 NSaved=15 IEnMin=15 EnMin= -381.271304837198     IErMin=15 ErrMin= 5.39D-06
 ErrMax= 5.39D-06  0.00D+00 EMaxC= 1.00D-01 BMatC= 9.55D-10 BMatP= 3.97D-09
 Rises=F IDIUse=1 WtCom= 1.00D+00 WtEn= 0.00D+00
 Coeff-Com:  0.486D-04-0.921D-04-0.357D-03 0.541D-03 0.297D-02-0.150D-02
 Coeff-Com: -0.900D-02 0.184D-01 0.200D-01-0.119D+00 0.775D-01 0.396D+00
 Coeff-Com: -0.510D+00-0.463D+00 0.159D+01
 Coeff:      0.486D-04-0.921D-04-0.357D-03 0.541D-03 0.297D-02-0.150D-02
 Coeff:     -0.900D-02 0.184D-01 0.200D-01-0.119D+00 0.775D-01 0.396D+00
 Coeff:     -0.510D+00-0.463D+00 0.159D+01
 Gap=     0.318 Goal=   None    Shift=    0.000
 RMSDP=1.43D-05 MaxDP=2.03D-04 DE=-1.95D-07 OVMax= 0.00D+00

 Cycle  16  Pass 0  IDiag  1:
 RMSU=  2.04D-06    CP:  9.83D-01  1.95D+00  2.34D+00  3.00D+00  3.00D+00
                    CP:  3.00D+00  3.00D+00  2.11D+00  1.84D+00  3.00D+00
                    CP:  3.00D+00  3.00D+00  3.00D+00  2.35D+00  1.81D+00
 E= -381.271304753715     Delta-E=        0.000000083484 Rises=F Damp=F AM=F Ri=F Fa=F
 DIIS: error= 2.91D-06 at cycle  16 NSaved=  16.
 NSaved=16 IEnMin=15 EnMin= -381.271304837198     IErMin=16 ErrMin= 2.91D-06
 ErrMax= 2.91D-06  0.00D+00 EMaxC= 1.00D-01 BMatC= 1.61D-10 BMatP= 9.55D-10
 Rises=F IDIUse=1 WtCom= 1.00D+00 WtEn= 0.00D+00
 Coeff-Com: -0.342D-04 0.766D-04-0.185D-03-0.856D-03 0.858D-03 0.383D-02
 Coeff-Com: -0.422D-02-0.706D-02 0.341D-02 0.481D-01-0.938D-01-0.717D-01
 Coeff-Com:  0.220D+00 0.162D+00-0.105D+01 0.179D+01
 Coeff:     -0.342D-04 0.766D-04-0.185D-03-0.856D-03 0.858D-03 0.383D-02
 Coeff:     -0.422D-02-0.706D-02 0.341D-02 0.481D-01-0.938D-01-0.717D-01
 Coeff:      0.220D+00 0.162D+00-0.105D+01 0.179D+01
 Gap=     0.318 Goal=   None    Shift=    0.000
 RMSDP=3.72D-06 MaxDP=3.99D-05 DE= 8.35D-08 OVMax= 0.00D+00

 Initial convergence to 1.0D-05 achieved.  Increase integral accuracy.
 Cycle  17  Pass 1  IDiag  1:
 E= -381.271306692467     Delta-E=       -0.000001938752 Rises=F Damp=F AM=F Ri=F Fa=F
 DIIS: error= 1.20D-06 at cycle   1 NSaved=   1.
 NSaved= 1 IEnMin= 1 EnMin= -381.271306692467     IErMin= 1 ErrMin= 1.20D-06
 ErrMax= 1.20D-06  0.00D+00 EMaxC= 1.00D-01 BMatC= 1.25D-10 BMatP= 1.25D-10
 Rises=F IDIUse=1 WtCom= 1.00D+00 WtEn= 0.00D+00
 Coeff-Com:  0.100D+01
 Coeff:      0.100D+01
 Gap=     0.318 Goal=   None    Shift=    0.000
 RMSDP=3.72D-06 MaxDP=3.99D-05 DE=-1.94D-06 OVMax= 0.00D+00

 Cycle  18  Pass 1  IDiag  1:
 RMSU=  5.50D-07    CP:  1.00D+00
 E= -381.271306692916     Delta-E=       -0.000000000449 Rises=F Damp=F AM=F Ri=F Fa=F
 DIIS: error= 9.50D-07 at cycle   2 NSaved=   2.
 NSaved= 2 IEnMin= 2 EnMin= -381.271306692916     IErMin= 2 ErrMin= 9.50D-07
 ErrMax= 9.50D-07  0.00D+00 EMaxC= 1.00D-01 BMatC= 1.07D-11 BMatP= 1.25D-10
 Rises=F IDIUse=1 WtCom= 1.00D+00 WtEn= 0.00D+00
 Coeff-Com: -0.837D-01 0.108D+01
 Coeff:     -0.837D-01 0.108D+01
 Gap=     0.318 Goal=   None    Shift=    0.000
 RMSDP=4.11D-07 MaxDP=4.08D-06 DE=-4.49D-10 OVMax= 0.00D+00

 Cycle  19  Pass 1  IDiag  1:
 RMSU=  2.09D-07    CP:  1.00D+00  1.64D+00
 E= -381.271306693068     Delta-E=       -0.000000000153 Rises=F Damp=F AM=F Ri=F Fa=F
 DIIS: error= 6.59D-07 at cycle   3 NSaved=   3.
 NSaved= 3 IEnMin= 3 EnMin= -381.271306693068     IErMin= 3 ErrMin= 6.59D-07
 ErrMax= 6.59D-07  0.00D+00 EMaxC= 1.00D-01 BMatC= 6.23D-12 BMatP= 1.07D-11
 Rises=F IDIUse=1 WtCom= 1.00D+00 WtEn= 0.00D+00
 Coeff-Com: -0.414D-01-0.311D+00 0.135D+01
 Coeff:     -0.414D-01-0.311D+00 0.135D+01
 Gap=     0.318 Goal=   None    Shift=    0.000
 RMSDP=3.88D-07 MaxDP=3.73D-06 DE=-1.53D-10 OVMax= 0.00D+00

 Cycle  20  Pass 1  IDiag  1:
 RMSU=  8.14D-08    CP:  1.00D+00  2.24D+00  1.92D+00
 E= -381.271306693169     Delta-E=       -0.000000000100 Rises=F Damp=F AM=F Ri=F Fa=F
 DIIS: error= 4.13D-07 at cycle   4 NSaved=   4.
 NSaved= 4 IEnMin= 4 EnMin= -381.271306693169     IErMin= 4 ErrMin= 4.13D-07
 ErrMax= 4.13D-07  0.00D+00 EMaxC= 1.00D-01 BMatC= 2.39D-12 BMatP= 6.23D-12
 Rises=F IDIUse=1 WtCom= 1.00D+00 WtEn= 0.00D+00
 Coeff-Com:  0.390D-01-0.638D+00-0.169D+00 0.177D+01
 Coeff:      0.390D-01-0.638D+00-0.169D+00 0.177D+01
 Gap=     0.318 Goal=   None    Shift=    0.000
 RMSDP=5.95D-07 MaxDP=5.75D-06 DE=-1.00D-10 OVMax= 0.00D+00

 Cycle  21  Pass 1  IDiag  1:
 RMSU=  1.39D-07    CP:  1.00D+00  3.00D+00  3.00D+00  2.21D+00
 E= -381.271306693259     Delta-E=       -0.000000000090 Rises=F Damp=F AM=F Ri=F Fa=F
 DIIS: error= 1.96D-07 at cycle   5 NSaved=   5.
 NSaved= 5 IEnMin= 5 EnMin= -381.271306693259     IErMin= 5 ErrMin= 1.96D-07
 ErrMax= 1.96D-07  0.00D+00 EMaxC= 1.00D-01 BMatC= 4.83D-13 BMatP= 2.39D-12
 Rises=F IDIUse=1 WtCom= 1.00D+00 WtEn= 0.00D+00
 Coeff-Com: -0.185D-01 0.440D+00-0.323D+00-0.686D+00 0.159D+01
 Coeff:     -0.185D-01 0.440D+00-0.323D+00-0.686D+00 0.159D+01
 Gap=     0.318 Goal=   None    Shift=    0.000
 RMSDP=2.03D-07 MaxDP=2.82D-06 DE=-8.98D-11 OVMax= 0.00D+00

 Cycle  22  Pass 1  IDiag  1:
 RMSU=  6.40D-08    CP:  1.00D+00  3.00D+00  3.00D+00  3.00D+00  2.28D+00
 E= -381.271306693272     Delta-E=       -0.000000000013 Rises=F Damp=F AM=F Ri=F Fa=F
 DIIS: error= 1.33D-07 at cycle   6 NSaved=   6.
 NSaved= 6 IEnMin= 6 EnMin= -381.271306693272     IErMin= 6 ErrMin= 1.33D-07
 ErrMax= 1.33D-07  0.00D+00 EMaxC= 1.00D-01 BMatC= 1.98D-13 BMatP= 4.83D-13
 Rises=F IDIUse=1 WtCom= 1.00D+00 WtEn= 0.00D+00
 Coeff-Com: -0.284D-03-0.965D-01 0.174D+00 0.103D+00-0.135D+01 0.217D+01
 Coeff:     -0.284D-03-0.965D-01 0.174D+00 0.103D+00-0.135D+01 0.217D+01
 Gap=     0.318 Goal=   None    Shift=    0.000
 RMSDP=1.83D-07 MaxDP=2.83D-06 DE=-1.34D-11 OVMax= 0.00D+00

 Cycle  23  Pass 1  IDiag  1:
 RMSU=  1.03D-07    CP:  1.00D+00  3.00D+00  3.00D+00  3.00D+00  3.00D+00
                    CP:  1.93D+00
 E= -381.271306693285     Delta-E=       -0.000000000013 Rises=F Damp=F AM=F Ri=F Fa=F
 DIIS: error= 7.49D-08 at cycle   7 NSaved=   7.
 NSaved= 7 IEnMin= 7 EnMin= -381.271306693285     IErMin= 7 ErrMin= 7.49D-08
 ErrMax= 7.49D-08  0.00D+00 EMaxC= 1.00D-01 BMatC= 7.28D-14 BMatP= 1.98D-13
 Rises=F IDIUse=1 WtCom= 1.00D+00 WtEn= 0.00D+00
 Coeff-Com:  0.708D-02-0.136D+00 0.330D-01 0.304D+00-0.228D+00-0.753D+00
 Coeff-Com:  0.177D+01
 Coeff:      0.708D-02-0.136D+00 0.330D-01 0.304D+00-0.228D+00-0.753D+00
 Coeff:      0.177D+01
 Gap=     0.318 Goal=   None    Shift=    0.000
 RMSDP=1.29D-07 MaxDP=2.01D-06 DE=-1.25D-11 OVMax= 0.00D+00

 Cycle  24  Pass 1  IDiag  1:
 RMSU=  4.77D-08    CP:  1.00D+00  3.00D+00  3.00D+00  3.00D+00  3.00D+00
                    CP:  2.56D+00  2.10D+00
 E= -381.271306693277     Delta-E=        0.000000000007 Rises=F Damp=F AM=F Ri=F Fa=F
 DIIS: error= 3.48D-08 at cycle   8 NSaved=   8.
 NSaved= 8 IEnMin= 7 EnMin= -381.271306693285     IErMin= 8 ErrMin= 3.48D-08
 ErrMax= 3.48D-08  0.00D+00 EMaxC= 1.00D-01 BMatC= 2.07D-14 BMatP= 7.28D-14
 Rises=F IDIUse=1 WtCom= 1.00D+00 WtEn= 0.00D+00
 Coeff-Com: -0.157D-02 0.778D-01-0.103D+00-0.974D-01 0.649D+00-0.826D+00
 Coeff-Com: -0.303D+00 0.160D+01
 Coeff:     -0.157D-02 0.778D-01-0.103D+00-0.974D-01 0.649D+00-0.826D+00
 Coeff:     -0.303D+00 0.160D+01
 Gap=     0.318 Goal=   None    Shift=    0.000
 RMSDP=8.11D-08 MaxDP=1.22D-06 DE= 7.28D-12 OVMax= 0.00D+00

 Cycle  25  Pass 1  IDiag  1:
 RMSU=  1.10D-08    CP:  1.00D+00  3.00D+00  3.00D+00  3.00D+00  3.00D+00
                    CP:  2.97D+00  2.78D+00  1.61D+00
 E= -381.271306693287     Delta-E=       -0.000000000009 Rises=F Damp=F AM=F Ri=F Fa=F
 DIIS: error= 1.33D-08 at cycle   9 NSaved=   9.
 NSaved= 9 IEnMin= 9 EnMin= -381.271306693287     IErMin= 9 ErrMin= 1.33D-08
 ErrMax= 1.33D-08  0.00D+00 EMaxC= 1.00D-01 BMatC= 3.35D-15 BMatP= 2.07D-14
 Rises=F IDIUse=1 WtCom= 1.00D+00 WtEn= 0.00D+00
 Coeff-Com: -0.138D-02 0.277D-01-0.870D-02-0.613D-01 0.679D-01 0.777D-01
 Coeff-Com: -0.288D+00-0.261D-01 0.121D+01
 Coeff:     -0.138D-02 0.277D-01-0.870D-02-0.613D-01 0.679D-01 0.777D-01
 Coeff:     -0.288D+00-0.261D-01 0.121D+01
 Gap=     0.318 Goal=   None    Shift=    0.000
 RMSDP=2.72D-08 MaxDP=4.05D-07 DE=-9.44D-12 OVMax= 0.00D+00

 Cycle  26  Pass 1  IDiag  1:
 RMSU=  7.56D-09    CP:  1.00D+00  3.00D+00  3.00D+00  3.00D+00  3.00D+00
                    CP:  3.00D+00  3.00D+00  1.81D+00  1.52D+00
 E= -381.271306693287     Delta-E=        0.000000000000 Rises=F Damp=F AM=F Ri=F Fa=F
 DIIS: error= 5.70D-09 at cycle  10 NSaved=  10.
 NSaved=10 IEnMin= 9 EnMin= -381.271306693287     IErMin=10 ErrMin= 5.70D-09
 ErrMax= 5.70D-09  0.00D+00 EMaxC= 1.00D-01 BMatC= 8.38D-16 BMatP= 3.35D-15
 Rises=F IDIUse=1 WtCom= 1.00D+00 WtEn= 0.00D+00
 Coeff-Com:  0.597D-03-0.227D-01 0.286D-01 0.267D-01-0.151D+00 0.161D+00
 Coeff-Com:  0.157D+00-0.443D+00-0.877D-01 0.133D+01
 Coeff:      0.597D-03-0.227D-01 0.286D-01 0.267D-01-0.151D+00 0.161D+00
 Coeff:      0.157D+00-0.443D+00-0.877D-01 0.133D+01
 Gap=     0.318 Goal=   None    Shift=    0.000
 RMSDP=8.16D-09 MaxDP=1.12D-07 DE= 0.00D+00 OVMax= 0.00D+00

 SCF Done:  E(RHF) =  -381.271306693     A.U. after   26 cycles
            NFock= 26  Conv=0.82D-08     -V/T= 1.9903
 KE=         384.995406 PE=       -2085.879449 EE=         722.117520
 Leave Link  502 at Thu Mar 13 18:33:20 2025, MaxMem=  8589934592 cpu:               3.8 elap:               0.5
 (Enter /Users/vincenzobarone/Documents/gdv28/gdv/l601.exe)
 Copying SCF densities to generalized density rwf, IOpCl= 0 IROHF=0.

 **********************************************************************

            Population analysis using the SCF Density.

 **********************************************************************

 Orbital symmetries:
       Occupied  (A) (A) (A) (A) (A) (A) (A) (A) (A) (A) (A) (A)
                 (A) (A) (A) (A) (A) (A) (A) (A) (A) (A) (A) (A)
                 (A) (A) (A) (A) (A) (A) (A) (A) (A) (A) (A) (A)
                 (A) (A)
       Virtual   (A) (A) (A) (A) (A) (A) (A) (A) (A) (A) (A) (A)
                 (A) (A) (A) (A) (A) (A) (A) (A) (A) (A) (A) (A)
                 (A) (A) (A) (A)
 The electronic state is 1-A.
 Alpha  occ. eigenvalues --      -11.21940     -11.10849     -11.08643     -11.05902     -11.02824
 Alpha  occ. eigenvalues --      -11.01915     -11.01214     -10.98013     -10.94404     -10.94379
 Alpha  occ. eigenvalues --       -1.57632      -1.16783      -1.10105      -0.97754      -0.95662
 Alpha  occ. eigenvalues --       -0.90152      -0.87915      -0.81901      -0.77931      -0.76956
 Alpha  occ. eigenvalues --       -0.67480      -0.61714      -0.59308      -0.57751      -0.56308
 Alpha  occ. eigenvalues --       -0.53206      -0.50253      -0.49586      -0.48928      -0.47426
 Alpha  occ. eigenvalues --       -0.46342      -0.43389      -0.42476      -0.37178      -0.32576
 Alpha  occ. eigenvalues --       -0.18353      -0.16777      -0.10525
 Alpha virt. eigenvalues --        0.21268       0.28979       0.40376       0.42042       0.48419
 Alpha virt. eigenvalues --        0.58722       0.61174       0.63446       0.65504       0.69024
 Alpha virt. eigenvalues --        0.71228       0.72839       0.73351       0.74892       0.75331
 Alpha virt. eigenvalues --        0.76476       0.77186       0.78774       0.79523       0.81120
 Alpha virt. eigenvalues --        0.82466       0.84821       0.86930       0.89503       0.93880
 Alpha virt. eigenvalues --        1.01863       1.30650       1.38409
          Condensed to atoms (all electrons):
               1          2          3          4          5          6
     1  C    5.253529   0.233798  -0.024077  -0.000185  -0.041126   0.336069
     2  C    0.233798   5.615532   0.148994  -0.009221   0.003810  -0.014837
     3  C   -0.024077   0.148994   5.852094   0.037551  -0.010769   0.005386
     4  C   -0.000185  -0.009221   0.037551   4.911948   0.191913  -0.014030
     5  C   -0.041126   0.003810  -0.010769   0.191913   5.320773   0.340928
     6  C    0.336069  -0.014837   0.005386  -0.014030   0.340928   4.789917
     7  C    0.055184   0.164764  -0.187220   0.326332   0.035419  -0.041386
     8  C   -0.022799   0.000101  -0.000078   0.000074  -0.023845   0.357323
     9  C   -0.025584   0.000856  -0.000084   0.000932  -0.026280   0.383452
    10  C   -0.031791   0.383423  -0.033321   0.000644  -0.000163   0.000359
    11  H    0.001666   0.000400   0.004402  -0.051913   0.385230  -0.043544
    12  H    0.001046  -0.020262  -0.004941   0.000053  -0.000003  -0.000008
    13  H   -0.001112  -0.031652   0.000906  -0.000081   0.000007  -0.000030
    14  H   -0.001198  -0.029456   0.001280   0.000030   0.000007   0.000038
    15  H    0.000736  -0.001301   0.379085  -0.002731   0.000537  -0.000060
    16  H   -0.000070   0.003528  -0.016037   0.417624  -0.018550   0.000729
    17  H   -0.000279   0.001628  -0.022793   0.369570  -0.028586   0.000220
    18  H    0.376730  -0.073006   0.004208  -0.001164   0.000635  -0.048428
    19  H   -0.009277  -0.003969   0.302060  -0.076275  -0.000505   0.000022
    20  H   -0.001085  -0.241330   0.112407  -0.093946  -0.006857  -0.001889
    21  H   -0.002248   0.000072  -0.000014   0.000031  -0.000895  -0.019317
    22  H   -0.000492  -0.000001   0.000002  -0.000007   0.001201  -0.020453
    23  H    0.001189  -0.000008   0.000002   0.000013  -0.001894  -0.021052
    24  H   -0.004021   0.000058  -0.000044   0.000068  -0.002515  -0.019363
    25  H    0.001408  -0.000024   0.000003  -0.000005  -0.002241  -0.021134
    26  H   -0.000941   0.000000   0.000002  -0.000018   0.001365  -0.020232
               7          8          9         10         11         12
     1  C    0.055184  -0.022799  -0.025584  -0.031791   0.001666   0.001046
     2  C    0.164764   0.000101   0.000856   0.383423   0.000400  -0.020262
     3  C   -0.187220  -0.000078  -0.000084  -0.033321   0.004402  -0.004941
     4  C    0.326332   0.000074   0.000932   0.000644  -0.051913   0.000053
     5  C    0.035419  -0.023845  -0.026280  -0.000163   0.385230  -0.000003
     6  C   -0.041386   0.357323   0.383452   0.000359  -0.043544  -0.000008
     7  C    6.179350   0.002524  -0.001059  -0.002488  -0.037118   0.000565
     8  C    0.002524   4.745459  -0.034440   0.000001   0.001812  -0.000000
     9  C   -0.001059  -0.034440   4.753205  -0.000001  -0.015625   0.000000
    10  C   -0.002488   0.000001  -0.000001   4.658437   0.000011   0.380534
    11  H   -0.037118   0.001812  -0.015625   0.000011   0.768767  -0.000000
    12  H    0.000565  -0.000000   0.000000   0.380534  -0.000000   0.650891
    13  H    0.000281   0.000000  -0.000001   0.379648  -0.000001  -0.022079
    14  H    0.000416  -0.000001  -0.000000   0.379671   0.000000  -0.021661
    15  H   -0.016438   0.000000   0.000002  -0.006755  -0.000046   0.000305
    16  H   -0.023439  -0.000005   0.000007  -0.000026  -0.012681  -0.000003
    17  H   -0.026236   0.000027  -0.000012  -0.000028   0.001182  -0.000001
    18  H   -0.030079   0.001843  -0.016121  -0.003317   0.000759  -0.000010
    19  H   -0.096716   0.000105  -0.000058   0.001869  -0.000324  -0.000302
    20  H    0.203226   0.000035  -0.000172   0.002584  -0.007593  -0.000252
    21  H    0.000058   0.383624   0.001427  -0.000001  -0.000008   0.000000
    22  H   -0.000033   0.382018  -0.004170  -0.000000  -0.000062   0.000000
    23  H   -0.000050   0.380845  -0.002004   0.000000   0.000067  -0.000000
    24  H    0.000307   0.001390   0.384174  -0.000000  -0.000862   0.000000
    25  H    0.000035  -0.001896   0.380927   0.000000  -0.000212  -0.000000
    26  H    0.000011  -0.003757   0.382773  -0.000001   0.000320   0.000000
              13         14         15         16         17         18
     1  C   -0.001112  -0.001198   0.000736  -0.000070  -0.000279   0.376730
     2  C   -0.031652  -0.029456  -0.001301   0.003528   0.001628  -0.073006
     3  C    0.000906   0.001280   0.379085  -0.016037  -0.022793   0.004208
     4  C   -0.000081   0.000030  -0.002731   0.417624   0.369570  -0.001164
     5  C    0.000007   0.000007   0.000537  -0.018550  -0.028586   0.000635
     6  C   -0.000030   0.000038  -0.000060   0.000729   0.000220  -0.048428
     7  C    0.000281   0.000416  -0.016438  -0.023439  -0.026236  -0.030079
     8  C    0.000000  -0.000001   0.000000  -0.000005   0.000027   0.001843
     9  C   -0.000001  -0.000000   0.000002   0.000007  -0.000012  -0.016121
    10  C    0.379648   0.379671  -0.006755  -0.000026  -0.000028  -0.003317
    11  H   -0.000001   0.000000  -0.000046  -0.012681   0.001182   0.000759
    12  H   -0.022079  -0.021661   0.000305  -0.000003  -0.000001  -0.000010
    13  H    0.654125  -0.028756  -0.000010  -0.000002   0.000003   0.001762
    14  H   -0.028756   0.657573   0.000333   0.000002  -0.000005  -0.000278
    15  H   -0.000010   0.000333   0.429630  -0.001415  -0.003239  -0.000176
    16  H   -0.000002   0.000002  -0.001415   0.584492  -0.033603   0.000167
    17  H    0.000003  -0.000005  -0.003239  -0.033603   0.637335  -0.000001
    18  H    0.001762  -0.000278  -0.000176   0.000167  -0.000001   0.785758
    19  H    0.000354  -0.000992   0.000412  -0.000784  -0.002044   0.001679
    20  H    0.001880  -0.000645  -0.004431  -0.036299   0.009270   0.007527
    21  H    0.000000  -0.000001   0.000000  -0.000000  -0.000000   0.000026
    22  H   -0.000000   0.000000  -0.000000   0.000000  -0.000000   0.000019
    23  H   -0.000000   0.000000  -0.000000  -0.000001  -0.000003  -0.000063
    24  H    0.000001  -0.000000   0.000001   0.000000   0.000000  -0.000894
    25  H    0.000000   0.000000  -0.000000  -0.000001  -0.000001   0.000356
    26  H   -0.000000   0.000000  -0.000000   0.000000   0.000000  -0.000063
              19         20         21         22         23         24
     1  C   -0.009277  -0.001085  -0.002248  -0.000492   0.001189  -0.004021
     2  C   -0.003969  -0.241330   0.000072  -0.000001  -0.000008   0.000058
     3  C    0.302060   0.112407  -0.000014   0.000002   0.000002  -0.000044
     4  C   -0.076275  -0.093946   0.000031  -0.000007   0.000013   0.000068
     5  C   -0.000505  -0.006857  -0.000895   0.001201  -0.001894  -0.002515
     6  C    0.000022  -0.001889  -0.019317  -0.020453  -0.021052  -0.019363
     7  C   -0.096716   0.203226   0.000058  -0.000033  -0.000050   0.000307
     8  C    0.000105   0.000035   0.383624   0.382018   0.380845   0.001390
     9  C   -0.000058  -0.000172   0.001427  -0.004170  -0.002004   0.384174
    10  C    0.001869   0.002584  -0.000001  -0.000000   0.000000  -0.000000
    11  H   -0.000324  -0.007593  -0.000008  -0.000062   0.000067  -0.000862
    12  H   -0.000302  -0.000252   0.000000   0.000000  -0.000000   0.000000
    13  H    0.000354   0.001880   0.000000  -0.000000  -0.000000   0.000001
    14  H   -0.000992  -0.000645  -0.000001   0.000000   0.000000  -0.000000
    15  H    0.000412  -0.004431   0.000000  -0.000000  -0.000000   0.000001
    16  H   -0.000784  -0.036299  -0.000000   0.000000  -0.000001   0.000000
    17  H   -0.002044   0.009270  -0.000000  -0.000000  -0.000003   0.000000
    18  H    0.001679   0.007527   0.000026   0.000019  -0.000063  -0.000894
    19  H    0.406468   0.004039  -0.000006   0.000000  -0.000004  -0.000001
    20  H    0.004039   0.663051   0.000001   0.000000  -0.000002   0.000138
    21  H   -0.000006   0.000001   0.627027  -0.021672  -0.021774  -0.000043
    22  H    0.000000   0.000000  -0.021672   0.632062  -0.022074   0.000080
    23  H   -0.000004  -0.000002  -0.021774  -0.022074   0.636013   0.000016
    24  H   -0.000001   0.000138  -0.000043   0.000080   0.000016   0.631938
    25  H    0.000003   0.000017   0.000021   0.000010  -0.000141  -0.022237
    26  H   -0.000000  -0.000006   0.000066  -0.000634   0.000041  -0.021727
              25         26
     1  C    0.001408  -0.000941
     2  C   -0.000024   0.000000
     3  C    0.000003   0.000002
     4  C   -0.000005  -0.000018
     5  C   -0.002241   0.001365
     6  C   -0.021134  -0.020232
     7  C    0.000035   0.000011
     8  C   -0.001896  -0.003757
     9  C    0.380927   0.382773
    10  C    0.000000  -0.000001
    11  H   -0.000212   0.000320
    12  H   -0.000000   0.000000
    13  H    0.000000  -0.000000
    14  H    0.000000   0.000000
    15  H   -0.000000  -0.000000
    16  H   -0.000001   0.000000
    17  H   -0.000001   0.000000
    18  H    0.000356  -0.000063
    19  H    0.000003  -0.000000
    20  H    0.000017  -0.000006
    21  H    0.000021   0.000066
    22  H    0.000010  -0.000634
    23  H   -0.000141   0.000041
    24  H   -0.022237  -0.021727
    25  H    0.630278  -0.021500
    26  H   -0.021500   0.621567
 Mulliken charges:
               1
     1  C   -0.095069
     2  C   -0.131896
     3  C   -0.549002
     4  C   -0.007208
     5  C   -0.117595
     6  C    0.071321
     7  C   -0.506210
     8  C   -0.170359
     9  C   -0.162144
    10  C   -0.109291
    11  H    0.005373
    12  H    0.036130
    13  H    0.044757
    14  H    0.043643
    15  H    0.225563
    16  H    0.136365
    17  H    0.097597
    18  H   -0.007869
    19  H    0.474247
    20  H    0.390331
    21  H    0.053625
    22  H    0.054205
    23  H    0.050883
    24  H    0.053536
    25  H    0.056334
    26  H    0.062734
 Sum of Mulliken charges =  -0.00000
 Mulliken charges with hydrogens summed into heavy atoms:
               1
     1  C   -0.102938
     2  C   -0.131896
     3  C    0.541139
     4  C    0.226753
     5  C   -0.112222
     6  C    0.071321
     7  C   -0.506210
     8  C   -0.011645
     9  C    0.010460
    10  C    0.015239
 Electronic spatial extent (au):  <R**2>=           1391.4534
 Charge=             -0.0000 electrons
 Dipole moment (field-independent basis, Debye):
    X=             -2.3716    Y=              3.8226    Z=             -0.7938  Tot=              4.5680
 Quadrupole moment (field-independent basis, Debye-Ang):
   XX=            -58.3198   YY=            -62.4475   ZZ=            -59.5169
   XY=             -8.0543   XZ=             -1.2751   YZ=             -0.3721
 Traceless Quadrupole moment (field-independent basis, Debye-Ang):
   XX=              1.7750   YY=             -2.3528   ZZ=              0.5778
   XY=             -8.0543   XZ=             -1.2751   YZ=             -0.3721
 Octapole moment (field-independent basis, Debye-Ang**2):
  XXX=             -9.1999  YYY=              7.8188  ZZZ=             -0.4041  XYY=             -7.0318
  XXY=              7.2957  XXZ=             -1.5106  XZZ=             -3.4415  YZZ=              3.6940
  YYZ=             -3.6533  XYZ=             -0.7044
 Hexadecapole moment (field-independent basis, Debye-Ang**3):
 XXXX=          -1056.8324 YYYY=           -483.7919 ZZZZ=           -229.4459 XXXY=            -29.1375
 XXXZ=             -4.4827 YYYX=            -26.3399 YYYZ=             -3.5654 ZZZX=             -0.5891
 ZZZY=             -0.5992 XXYY=           -259.6729 XXZZ=           -228.0341 YYZZ=           -116.6981
 XXYZ=              0.6358 YYXZ=             -1.3785 ZZXY=             -3.7137
 N-N=         597.495217 E-N=       -2085.879449  KE=         384.995406
 No NMR shielding tensors so no spin-rotation constants.
 Leave Link  601 at Thu Mar 13 18:33:21 2025, MaxMem=  8589934592 cpu:               0.2 elap:               0.0
 (Enter /Users/vincenzobarone/Documents/gdv28/gdv/l701.exe)
 ... and contract with generalized density number  0.
 Compute integral first derivatives.
 Leave Link  701 at Thu Mar 13 18:33:21 2025, MaxMem=  8589934592 cpu:               0.1 elap:               0.0
 (Enter /Users/vincenzobarone/Documents/gdv28/gdv/l702.exe)
 L702 exits ... SP integral derivatives will be done elsewhere.
 Leave Link  702 at Thu Mar 13 18:33:21 2025, MaxMem=  8589934592 cpu:               0.0 elap:               0.0
 (Enter /Users/vincenzobarone/Documents/gdv28/gdv/l703.exe)
 Integral derivatives from FoFJK, PRISM(SPDF).
 Compute integral first derivatives, UseDBF=F ICtDFT=           0.
 Calling FoFJK, ICntrl=      2127 FMM=F ISym2X=0 I1Cent= 0 IOpClX= 0 NMat=1 NMatS=1 NMatT=0.
 FoFJK:  IHMeth= 1 ICntrl=    2127 DoSepK=F KAlg= 0 I1Cent=           0 FoldK=F
 IRaf=         0 NMat=       1 IRICut=       1 DoRegI=T DoRafI=F ISym2E= 0 IDoP0=0 IntGTp=1.
 FoFCou: FMM=F IPFlag=           0 FMFlag=      100000 FMFlg1=         800
         NFxFlg=           0 DoJE=F BraDBF=F KetDBF=F FulRan=T
         wScrn=  0.000000 ICntrl=      2127 IOpCl=  0 I1Cent=           0 NGrid=           0
         NMat0=    1 NMatS0=      1 NMatT0=    0 NMatD0=    1 NMtDS0=    0 NMtDT0=    0
 Symmetry not used in FoFCou.
 Leave Link  703 at Thu Mar 13 18:33:21 2025, MaxMem=  8589934592 cpu:               0.5 elap:               0.1
 (Enter /Users/vincenzobarone/Documents/gdv28/gdv/l716.exe)
 Dipole        =-9.33073970D-01 1.50391650D+00-3.12310739D-01
 ***** Axes restored to original set *****
 -------------------------------------------------------------------
 Center     Atomic                   Forces (Hartrees/Bohr)
 Number     Number              X              Y              Z
 -------------------------------------------------------------------
      1        6           0.055596085   -0.080621624   -0.082991792
      2        6          -0.410190950   -0.519436771    0.117975769
      3        6          -0.871416263    0.563491794   -0.290850867
      4        6           0.161728624    0.400011314    0.140965048
      5        6           0.150847775    0.030225997   -0.046857501
      6        6          -0.021772419   -0.005208066    0.069856453
      7        6           0.979107118   -0.400912449    0.042442802
      8        6           0.011762856   -0.008263636    0.028978598
      9        6           0.024093818   -0.005104318   -0.013895165
     10        6          -0.003790787   -0.005999730    0.018469171
     11        1           0.035023122    0.012630774    0.014818160
     12        1           0.002132334   -0.001402076    0.000439324
     13        1          -0.001433445    0.001180168   -0.001351990
     14        1          -0.007056714   -0.003069029   -0.005662298
     15        1           0.029730713   -0.015893325    0.008394100
     16        1          -0.009299469   -0.010591797    0.001618451
     17        1          -0.009353799   -0.001486401    0.006807105
     18        1           0.013798722   -0.041875473   -0.001264193
     19        1          -0.276022046    0.034451265    0.183206198
     20        1           0.165310117    0.047887411   -0.193804664
     21        1           0.001250488    0.001466835   -0.003228081
     22        1          -0.004077573    0.007040330    0.001064360
     23        1          -0.006110635   -0.003115924   -0.000335782
     24        1          -0.000643163    0.000570257    0.005507059
     25        1          -0.005539180   -0.002765155    0.000122876
     26        1          -0.003675331    0.006789630   -0.000423139
 -------------------------------------------------------------------
 Cartesian Forces:  Max     0.979107118 RMS     0.201730676
 Leave Link  716 at Thu Mar 13 18:33:21 2025, MaxMem=  8589934592 cpu:               0.0 elap:               0.0
 (Enter /Users/vincenzobarone/Documents/gdv28/gdv/l103.exe)

 GradGradGradGradGradGradGradGradGradGradGradGradGradGradGradGradGradGrad
 Berny optimization.
 FormGI is forming the generalized inverse of G from B-inverse, IUseBI=4.
 NTrRot=    -1 NTRed=    73 NAtoms=    26 NSkip=     1 NRank=    72 IsLin=F EigSml=6.0929D-03
 Internal  Forces:  Max     0.775133507 RMS     0.242069998
 FormGI is forming the generalized inverse of G from B-inverse, IUseBI=4.
 Search for a local minimum.
 Step number   1 out of a maximum of   83
 All quantities printed in internal units (Hartrees-Bohrs-Radians)
 RMS Force = .24207D+00 SwitMx=.10000D-02 MixMth= 1
 Mixed Optimization -- RFO/linear search
 Second derivative matrix not updated -- first step.
 ITU=  0
     Eigenvalues ---    0.01718   0.03176   0.03733   0.06336   0.14581
     Eigenvalues ---    0.17260   0.17326   0.17820   0.19354   0.19499
     Eigenvalues ---    0.19849   0.21558   0.23558   0.25681   0.25697
     Eigenvalues ---    0.26865   0.27353   0.27756   0.29665   0.30318
     Eigenvalues ---    0.30960   0.32002   0.32198   0.32339   0.32398
     Eigenvalues ---    0.32496   0.32599   0.32726   0.33051   0.33994
     Eigenvalues ---    0.34050   0.34230   0.34264   0.34286   0.34286
     Eigenvalues ---    0.34332   0.34354   0.34400   0.34468   0.34651
     Eigenvalues ---    0.34813   0.34940   0.35244   0.36872   0.39643
     Eigenvalues ---    0.41352   0.41939   0.44707   0.50634   0.51268
     Eigenvalues ---    0.53535   0.55846   0.56599   0.71242   0.71836
     Eigenvalues ---    0.75953   1.09397   1.30777   1.32952   1.43473
     Eigenvalues ---    1.47237   1.51578   1.95808   2.19864   2.25564
     Eigenvalues ---    2.77322   2.94628   2.97693   4.61163   5.25613
     Eigenvalues ---   13.10241  19.80848
 RFO step:  Lambda=-9.01714588D-01 EMin= 1.71786476D-02
 Linear search not attempted -- first point.
 Maximum step size (   0.300) exceeded in Quadratic search.
    -- Step size scaled by   0.990
 GrdOpt: GIC=T ITstSp=100 NP=   1 DidLin=F DidDIS=F IDoGRo=1 IDoRot=0
         ISwap=1 XLin= 0.000 DXMaxT= 0.300
 Iteration  1 RMS(Cart)=  0.14467350 RMS(Int)=  0.02236700
 Iteration  2 RMS(Cart)=  0.03147759 RMS(Int)=  0.00026973
 Iteration  3 RMS(Cart)=  0.00033524 RMS(Int)=  0.00021299
 Iteration  4 RMS(Cart)=  0.00000009 RMS(Int)=  0.00021299
 Variable       Old X    -DE/DX   Delta X   Delta X   Delta X     New X
                                 (Linear)    (Quad)   (Total)
  Stre1       2.86091   0.53796   0.00000   0.12893   0.12891   2.98982
  Stre2       2.92494   0.24817   0.00000   0.06281   0.06303   2.98797
  Stre3       3.00422  -0.32642   0.00000   0.00445   0.00407   3.00829
  Stre4       2.06547   0.01172   0.00000   0.00931   0.00931   2.07478
  Stre5       2.49494   0.76230   0.00000   0.28801   0.28819   2.78312
  Stre6       2.82835   0.01018   0.00000   0.00819   0.00819   2.83655
  Stre7       2.81595   0.74840   0.00000   0.27361   0.27379   3.08974
  Stre8       2.05281  -0.03466   0.00000  -0.02736  -0.02736   2.02545
  Stre9       2.89715   0.56615   0.00000   0.11942   0.11940   3.01655
  Stre10      2.07246  -0.01007   0.00000  -0.00801  -0.00801   2.06445
  Stre11      2.07341   0.00631   0.00000   0.00502   0.00502   2.07843
  Stre12      2.91431   0.14920   0.00000   0.04519   0.04541   2.95972
  Stre13      2.99612  -0.54619   0.00000   0.01399   0.01361   3.00973
  Stre14      2.06660   0.00191   0.00000   0.00152   0.00152   2.06813
  Stre15      2.87333   0.02546   0.00000   0.02092   0.02092   2.89425
  Stre16      2.88637   0.01576   0.00000   0.01302   0.01302   2.89938
  Stre17      2.06188   0.32362   0.00000   0.26178   0.26178   2.32366
  Stre18      2.05640   0.17019   0.00000   0.10244   0.10244   2.15884
  Stre19      2.05772  -0.00300   0.00000  -0.00237  -0.00237   2.05535
  Stre20      2.06849  -0.00783   0.00000  -0.00623  -0.00623   2.06226
  Stre21      2.06849  -0.00669   0.00000  -0.00531  -0.00531   2.06318
  Stre22      2.05980  -0.00494   0.00000  -0.00392  -0.00392   2.05589
  Stre23      2.06774  -0.00606   0.00000  -0.00482  -0.00482   2.06292
  Stre24      2.06736  -0.00732   0.00000  -0.00581  -0.00581   2.06155
  Stre25      2.06245  -0.00256   0.00000  -0.00203  -0.00203   2.06042
  Stre26      2.06887  -0.00012   0.00000  -0.00010  -0.00010   2.06877
  Stre27      2.06944  -0.00058   0.00000  -0.00046  -0.00046   2.06898
  Rock1       0.03370   0.29212   0.00000   0.06460   0.06460   0.09830
  Rock2       0.06290   0.00930   0.00000  -0.01048  -0.01048   0.05242
  Rock3       0.06940   0.00087   0.00000  -0.00521  -0.00521   0.06419
  Rock4      -0.02500  -0.00170   0.00000  -0.00127  -0.00127  -0.02627
  Bend5      -0.03560   0.04463   0.00000   0.02601   0.02601  -0.00959
  Bend6       0.00200   0.00133   0.00000   0.01235   0.01235   0.01435
  Bend7      -0.03440  -0.02174   0.00000  -0.00816  -0.00816  -0.04256
  Bend8      -0.00650   0.00482   0.00000   0.00286   0.00286  -0.00364
[...]
 (Enter /Users/vincenzobarone/Documents/gdv28/gdv/l301.exe)
 Standard basis: STO-3G (5D, 7F)
 Ernie: Thresh=  0.10000D-02 Tol=  0.10000D-05 Strict=F.
 There are    66 symmetry adapted cartesian basis functions of A   symmetry.
 There are    66 symmetry adapted basis functions of A   symmetry.
    66 basis functions,   198 primitive gaussians,    66 cartesian basis functions
    38 alpha electrons       38 beta electrons
       nuclear repulsion energy       552.1354056263 Hartrees.
 IExCor=         0 DFT=F Ex=HF Corr=None N6=None ScaHFX=  1.000000
 ScaDFX=  1.000000  1.000000  1.000000  1.000000  1.000000  0.000000
 ScaDFX=  0.000000  0.000000  0.000000  0.000000  0.000000  0.000000
 Grid=UltraFine IRanWt=     -1 IRanGd=            0 ICorTp=0 IEDCtl=  2004
 NAtoms=   26 NActive=   26 NUniq=   26 SFac= 1.00D+00 NAtFMM=   60 NAOKFM=F Big=F
 Integral buffers will be    131072 words long.
 Raffenetti 1 integral format.
 Two-electron integral symmetry is turned on.
 Leave Link  301 at Thu Mar 13 18:34:11 2025, MaxMem=  8589934592 cpu:               0.0 elap:               0.0
 (Enter /Users/vincenzobarone/Documents/gdv28/gdv/l302.exe)
 NPDir=0 NMtPBC=     1 NCelOv=     1 NCel=       1 NClECP=     1 NCelD=      1
         NCelK=      1 NCelE2=     1 NClLst=     1 CellRange=     0.0.
 One-electron integrals computed using PRISM.
 One-electron integral symmetry used in STVInt
 NBasis=    66 RedAO= T EigKep=  1.89D-01  NBF=    66
 NBsUse=    66 1.00D-06 EigRej= -1.00D+00 NBFU=    66
 Leave Link  302 at Thu Mar 13 18:34:11 2025, MaxMem=  8589934592 cpu:               0.1 elap:               0.0
 (Enter /Users/vincenzobarone/Documents/gdv28/gdv/l303.exe)
 DipDrv:  MaxL=1.
 Leave Link  303 at Thu Mar 13 18:34:11 2025, MaxMem=  8589934592 cpu:               0.0 elap:               0.0
 (Enter /Users/vincenzobarone/Documents/gdv28/gdv/l401.exe)
 Lowest energy guess from the checkpoint file:  "prova.chk"
 B after Tr=     0.000000    0.000000    0.000000
         Rot=    1.000000    0.000000    0.000000    0.000000 Ang=   0.00 deg.
 AO Guess basis will be translated and rotated to current coordinates.
 B after Tr=     0.000000    0.000000    0.000000
         Rot=    1.000000    0.000000    0.000000    0.000000 Ang=   0.00 deg.
 AO Guess basis will be translated and rotated to current coordinates.
 CkInt1:  FT= 6.09D-01
 Max alpha theta=  3.547 degrees.
 JPrj=2 DoOrth=T DoCkMO=T.
 Leave Link  401 at Thu Mar 13 18:34:11 2025, MaxMem=  8589934592 cpu:               0.0 elap:               0.0
 (Enter /Users/vincenzobarone/Documents/gdv28/gdv/l502.exe)
 Integral symmetry usage will be decided dynamically.
 Closed shell SCF:
 Using DIIS extrapolation, IDIIS=  1040.
 NGot=  8589934592 LenX=  8589919390 LenY=  8589914593
 Requested convergence on RMS density matrix=1.00D-08 within 128 cycles.
 Requested convergence on MAX density matrix=1.00D-06.
 Requested convergence on             energy=1.00D-06.
 No special actions if energy rises.
 Fock matrices will be formed incrementally for  20 cycles.
 Integral accuracy reduced to 1.0D-05 until final iterations.

 Cycle   1  Pass 0  IDiag  1:
 FoFJK:  IHMeth= 1 ICntrl=       0 DoSepK=F KAlg= 0 I1Cent=           0 FoldK=F
 IRaf= 950000000 NMat=       1 IRICut=       1 DoRegI=T DoRafI=F ISym2E= 0 IDoP0=0 IntGTp=1.
 FoFCou: FMM=F IPFlag=           0 FMFlag=      100000 FMFlg1=           0
         NFxFlg=           0 DoJE=F BraDBF=F KetDBF=F FulRan=T
         wScrn=  0.000000 ICntrl=         0 IOpCl=  0 I1Cent=           0 NGrid=           0
         NMat0=    1 NMatS0=      1 NMatT0=    0 NMatD0=    1 NMtDS0=    0 NMtDT0=    0
 Symmetry not used in FoFCou.
 E= -383.198942019000    
 DIIS: error= 8.48D-03 at cycle   1 NSaved=   1.
 NSaved= 1 IEnMin= 1 EnMin= -383.198942019000     IErMin= 1 ErrMin= 8.48D-03
 ErrMax= 8.48D-03  0.00D+00 EMaxC= 1.00D-01 BMatC= 7.03D-03 BMatP= 7.03D-03
 Rises=F IDIUse=3 WtCom= 9.22D-01 WtEn= 7.81D-02
 Coeff-Com:  0.100D+01
 Coeff-En:   0.100D+01
 Coeff:      0.100D+01
 Gap=    11.035 Goal=   None    Shift=    0.000
 GapD=   11.035 DampG=2.000 DampE=1.000 DampFc=2.0000 IDamp=-1.
 RMSDP=2.94D-03 MaxDP=3.29D-02              OVMax= 0.00D+00

 Cycle   2  Pass 0  IDiag  1:
 RMSU=  2.94D-03    CP:  9.98D-01
 E= -383.228361209112     Delta-E=       -0.029419190112 Rises=F Damp=F AM=F Ri=F Fa=F
 DIIS: error= 2.72D-03 at cycle   2 NSaved=   2.
 NSaved= 2 IEnMin= 2 EnMin= -383.228361209112     IErMin= 2 ErrMin= 2.72D-03
 ErrMax= 2.72D-03  0.00D+00 EMaxC= 1.00D-01 BMatC= 6.58D-04 BMatP= 7.03D-03
 Rises=F IDIUse=3 WtCom= 9.86D-01 WtEn= 1.42D-02
 Coeff-Com: -0.423D+00 0.142D+01
 Coeff-En:   0.000D+00 0.100D+01
 Coeff:     -0.417D+00 0.142D+01
 Gap=     0.499 Goal=   None    Shift=    0.000
 RMSDP=1.30D-03 MaxDP=1.48D-02 DE=-2.94D-02 OVMax= 0.00D+00

 Cycle   3  Pass 0  IDiag  1:
 RMSU=  2.08D-04    CP:  9.97D-01  1.44D+00
 E= -383.231543364583     Delta-E=       -0.003182155471 Rises=F Damp=F AM=F Ri=F Fa=F
 DIIS: error= 3.68D-04 at cycle   3 NSaved=   3.
 NSaved= 3 IEnMin= 3 EnMin= -383.231543364583     IErMin= 3 ErrMin= 3.68D-04
 ErrMax= 3.68D-04  0.00D+00 EMaxC= 1.00D-01 BMatC= 3.66D-06 BMatP= 6.58D-04
 Rises=F IDIUse=3 WtCom= 9.99D-01 WtEn= 7.05D-04
 Coeff-Com:  0.475D-01-0.181D+00 0.113D+01
 Coeff-En:   0.000D+00 0.000D+00 0.100D+01
 Coeff:      0.475D-01-0.181D+00 0.113D+01
 Gap=     0.499 Goal=   None    Shift=    0.000
 RMSDP=9.81D-05 MaxDP=1.97D-03 DE=-3.18D-03 OVMax= 0.00D+00

 Cycle   4  Pass 0  IDiag  1:
 RMSU=  6.45D-05    CP:  9.97D-01  1.45D+00  1.31D+00
 E= -383.231571882138     Delta-E=       -0.000028517556 Rises=F Damp=F AM=F Ri=F Fa=F
 DIIS: error= 1.90D-04 at cycle   4 NSaved=   4.
 NSaved= 4 IEnMin= 4 EnMin= -383.231571882138     IErMin= 4 ErrMin= 1.90D-04
 ErrMax= 1.90D-04  0.00D+00 EMaxC= 1.00D-01 BMatC= 7.66D-07 BMatP= 3.66D-06
 Rises=F IDIUse=3 WtCom= 1.00D+00 WtEn= 2.63D-04
 Coeff-Com:  0.199D-01-0.634D-01-0.188D+00 0.123D+01
 Coeff-En:   0.000D+00 0.000D+00 0.000D+00 0.100D+01
 Coeff:      0.199D-01-0.634D-01-0.188D+00 0.123D+01
 Gap=     0.499 Goal=   None    Shift=    0.000
 RMSDP=5.64D-05 MaxDP=1.19D-03 DE=-2.85D-05 OVMax= 0.00D+00

 Cycle   5  Pass 0  IDiag  1:
 RMSU=  2.76D-05    CP:  9.97D-01  1.45D+00  1.48D+00  1.48D+00
 E= -383.231580497446     Delta-E=       -0.000008615307 Rises=F Damp=F AM=F Ri=F Fa=F
 DIIS: error= 1.36D-04 at cycle   5 NSaved=   5.
 NSaved= 5 IEnMin= 5 EnMin= -383.231580497446     IErMin= 5 ErrMin= 1.36D-04
 ErrMax= 1.36D-04  0.00D+00 EMaxC= 1.00D-01 BMatC= 1.93D-07 BMatP= 7.66D-07
 Rises=F IDIUse=3 WtCom= 1.00D+00 WtEn= 1.58D-04
 Coeff-Com: -0.132D-01 0.476D-01-0.166D+00-0.316D+00 0.145D+01
 Coeff-En:   0.000D+00 0.000D+00 0.000D+00 0.000D+00 0.100D+01
 Coeff:     -0.132D-01 0.476D-01-0.166D+00-0.316D+00 0.145D+01
 Gap=     0.499 Goal=   None    Shift=    0.000
 RMSDP=4.43D-05 MaxDP=8.86D-04 DE=-8.62D-06 OVMax= 0.00D+00

 Cycle   6  Pass 0  IDiag  1:
 RMSU=  1.18D-05    CP:  9.97D-01  1.45D+00  1.57D+00  1.95D+00  1.86D+00
 E= -383.231583879405     Delta-E=       -0.000003381959 Rises=F Damp=F AM=F Ri=F Fa=F
 DIIS: error= 8.19D-05 at cycle   6 NSaved=   6.
 NSaved= 6 IEnMin= 6 EnMin= -383.231583879405     IErMin= 6 ErrMin= 8.19D-05
 ErrMax= 8.19D-05  0.00D+00 EMaxC= 1.00D-01 BMatC= 4.79D-08 BMatP= 1.93D-07
 Rises=F IDIUse=1 WtCom= 1.00D+00 WtEn= 0.00D+00
 Coeff-Com:  0.469D-02-0.182D-01 0.128D+00-0.148D-01-0.848D+00 0.175D+01
 Coeff:      0.469D-02-0.182D-01 0.128D+00-0.148D-01-0.848D+00 0.175D+01
 Gap=     0.499 Goal=   None    Shift=    0.000
 RMSDP=2.97D-05 MaxDP=7.84D-04 DE=-3.38D-06 OVMax= 0.00D+00

 Cycle   7  Pass 0  IDiag  1:
 RMSU=  5.78D-06    CP:  9.97D-01  1.45D+00  1.61D+00  2.18D+00  2.56D+00
                    CP:  2.22D+00
 E= -383.231584954404     Delta-E=       -0.000001074998 Rises=F Damp=F AM=F Ri=F Fa=F
 DIIS: error= 4.36D-05 at cycle   7 NSaved=   7.
 NSaved= 7 IEnMin= 7 EnMin= -383.231584954404     IErMin= 7 ErrMin= 4.36D-05
 ErrMax= 4.36D-05  0.00D+00 EMaxC= 1.00D-01 BMatC= 1.44D-08 BMatP= 4.79D-08
 Rises=F IDIUse=1 WtCom= 1.00D+00 WtEn= 0.00D+00
 Coeff-Com:  0.117D-02-0.349D-02-0.248D-01 0.101D+00 0.650D-01-0.985D+00
 Coeff-Com:  0.185D+01
 Coeff:      0.117D-02-0.349D-02-0.248D-01 0.101D+00 0.650D-01-0.985D+00
 Coeff:      0.185D+01
 Gap=     0.499 Goal=   None    Shift=    0.000
 RMSDP=2.13D-05 MaxDP=6.32D-04 DE=-1.07D-06 OVMax= 0.00D+00

 Cycle   8  Pass 0  IDiag  1:
 RMSU=  4.50D-06    CP:  9.97D-01  1.45D+00  1.62D+00  2.32D+00  3.00D+00
                    CP:  3.00D+00  2.14D+00
 E= -383.231585318880     Delta-E=       -0.000000364477 Rises=F Damp=F AM=F Ri=F Fa=F
 DIIS: error= 1.68D-05 at cycle   8 NSaved=   8.
 NSaved= 8 IEnMin= 8 EnMin= -383.231585318880     IErMin= 8 ErrMin= 1.68D-05
 ErrMax= 1.68D-05  0.00D+00 EMaxC= 1.00D-01 BMatC= 2.66D-09 BMatP= 1.44D-08
 Rises=F IDIUse=1 WtCom= 1.00D+00 WtEn= 0.00D+00
 Coeff-Com: -0.162D-02 0.617D-02-0.370D-01-0.113D-01 0.260D+00-0.392D+00
 Coeff-Com: -0.348D+00 0.152D+01
 Coeff:     -0.162D-02 0.617D-02-0.370D-01-0.113D-01 0.260D+00-0.392D+00
 Coeff:     -0.348D+00 0.152D+01
 Gap=     0.499 Goal=   None    Shift=    0.000
 RMSDP=1.15D-05 MaxDP=3.45D-04 DE=-3.64D-07 OVMax= 0.00D+00

 Cycle   9  Pass 0  IDiag  1:
 RMSU=  6.62D-06    CP:  9.97D-01  1.45D+00  1.63D+00  2.39D+00  3.00D+00
                    CP:  3.00D+00  2.98D+00  2.45D+00
 E= -383.231585368413     Delta-E=       -0.000000049533 Rises=F Damp=F AM=F Ri=F Fa=F
 DIIS: error= 2.40D-06 at cycle   9 NSaved=   9.
 NSaved= 9 IEnMin= 9 EnMin= -383.231585368413     IErMin= 9 ErrMin= 2.40D-06
 ErrMax= 2.40D-06  0.00D+00 EMaxC= 1.00D-01 BMatC= 1.38D-10 BMatP= 2.66D-09
 Rises=F IDIUse=1 WtCom= 1.00D+00 WtEn= 0.00D+00
 Coeff-Com:  0.316D-03-0.129D-02 0.118D-01-0.534D-02-0.754D-01 0.195D+00
 Coeff-Com: -0.839D-01-0.392D+00 0.135D+01
 Coeff:      0.316D-03-0.129D-02 0.118D-01-0.534D-02-0.754D-01 0.195D+00
 Coeff:     -0.839D-01-0.392D+00 0.135D+01
 Gap=     0.499 Goal=   None    Shift=    0.000
 RMSDP=1.69D-06 MaxDP=4.90D-05 DE=-4.95D-08 OVMax= 0.00D+00

 Initial convergence to 1.0D-05 achieved.  Increase integral accuracy.
 Cycle  10  Pass 1  IDiag  1:
 E= -383.231590470349     Delta-E=       -0.000005101936 Rises=F Damp=F AM=F Ri=F Fa=F
 DIIS: error= 1.18D-06 at cycle   1 NSaved=   1.
 NSaved= 1 IEnMin= 1 EnMin= -383.231590470349     IErMin= 1 ErrMin= 1.18D-06
 ErrMax= 1.18D-06  0.00D+00 EMaxC= 1.00D-01 BMatC= 1.19D-10 BMatP= 1.19D-10
 Rises=F IDIUse=1 WtCom= 1.00D+00 WtEn= 0.00D+00
 Coeff-Com:  0.100D+01
 Coeff:      0.100D+01
 Gap=     0.499 Goal=   None    Shift=    0.000
 RMSDP=1.69D-06 MaxDP=4.90D-05 DE=-5.10D-06 OVMax= 0.00D+00

 Cycle  11  Pass 1  IDiag  1:
 RMSU=  3.09D-07    CP:  1.00D+00
 E= -383.231590470574     Delta-E=       -0.000000000225 Rises=F Damp=F AM=F Ri=F Fa=F
 DIIS: error= 2.11D-07 at cycle   2 NSaved=   2.
 NSaved= 2 IEnMin= 2 EnMin= -383.231590470574     IErMin= 2 ErrMin= 2.11D-07
 ErrMax= 2.11D-07  0.00D+00 EMaxC= 1.00D-01 BMatC= 2.43D-12 BMatP= 1.19D-10
 Rises=F IDIUse=1 WtCom= 1.00D+00 WtEn= 0.00D+00
 Coeff-Com: -0.526D-01 0.105D+01
 Coeff:     -0.526D-01 0.105D+01
 Gap=     0.499 Goal=   None    Shift=    0.000
 RMSDP=7.58D-08 MaxDP=1.16D-06 DE=-2.25D-10 OVMax= 0.00D+00

 Cycle  12  Pass 1  IDiag  1:
 RMSU=  5.67D-08    CP:  1.00D+00  1.16D+00
 E= -383.231590470593     Delta-E=       -0.000000000019 Rises=F Damp=F AM=F Ri=F Fa=F
 DIIS: error= 1.52D-07 at cycle   3 NSaved=   3.
 NSaved= 3 IEnMin= 3 EnMin= -383.231590470593     IErMin= 3 ErrMin= 1.52D-07
 ErrMax= 1.52D-07  0.00D+00 EMaxC= 1.00D-01 BMatC= 5.68D-13 BMatP= 2.43D-12
 Rises=F IDIUse=1 WtCom= 1.00D+00 WtEn= 0.00D+00
 Coeff-Com:  0.535D-02-0.408D+00 0.140D+01
 Coeff:      0.535D-02-0.408D+00 0.140D+01
 Gap=     0.499 Goal=   None    Shift=    0.000
 RMSDP=5.25D-08 MaxDP=1.16D-06 DE=-1.93D-11 OVMax= 0.00D+00

 Cycle  13  Pass 1  IDiag  1:
 RMSU=  2.31D-08    CP:  1.00D+00  1.24D+00  1.73D+00
 E= -383.231590470599     Delta-E=       -0.000000000006 Rises=F Damp=F AM=F Ri=F Fa=F
 DIIS: error= 1.00D-07 at cycle   4 NSaved=   4.
 NSaved= 4 IEnMin= 4 EnMin= -383.231590470599     IErMin= 4 ErrMin= 1.00D-07
 ErrMax= 1.00D-07  0.00D+00 EMaxC= 1.00D-01 BMatC= 1.23D-13 BMatP= 5.68D-13
 Rises=F IDIUse=1 WtCom= 1.00D+00 WtEn= 0.00D+00
 Coeff-Com:  0.972D-02-0.180D+00-0.698D-01 0.124D+01
 Coeff:      0.972D-02-0.180D+00-0.698D-01 0.124D+01
 Gap=     0.499 Goal=   None    Shift=    0.000
 RMSDP=3.24D-08 MaxDP=8.73D-07 DE=-5.91D-12 OVMax= 0.00D+00

 Cycle  14  Pass 1  IDiag  1:
 RMSU=  1.12D-08    CP:  1.00D+00  1.27D+00  2.20D+00  1.52D+00
 E= -383.231590470603     Delta-E=       -0.000000000004 Rises=F Damp=F AM=F Ri=F Fa=F
 DIIS: error= 6.52D-08 at cycle   5 NSaved=   5.
 NSaved= 5 IEnMin= 5 EnMin= -383.231590470603     IErMin= 5 ErrMin= 6.52D-08
 ErrMax= 6.52D-08  0.00D+00 EMaxC= 1.00D-01 BMatC= 3.15D-14 BMatP= 1.23D-13
 Rises=F IDIUse=1 WtCom= 1.00D+00 WtEn= 0.00D+00
 Coeff-Com: -0.519D-02 0.140D+00-0.171D+00-0.544D+00 0.158D+01
 Coeff:     -0.519D-02 0.140D+00-0.171D+00-0.544D+00 0.158D+01
 Gap=     0.499 Goal=   None    Shift=    0.000
 RMSDP=2.09D-08 MaxDP=6.29D-07 DE=-4.32D-12 OVMax= 0.00D+00

 Cycle  15  Pass 1  IDiag  1:
 RMSU=  3.59D-09    CP:  1.00D+00  1.27D+00  2.38D+00  2.03D+00  2.16D+00
 E= -383.231590470595     Delta-E=        0.000000000008 Rises=F Damp=F AM=F Ri=F Fa=F
 DIIS: error= 4.02D-08 at cycle   6 NSaved=   6.
 NSaved= 6 IEnMin= 5 EnMin= -383.231590470603     IErMin= 6 ErrMin= 4.02D-08
 ErrMax= 4.02D-08  0.00D+00 EMaxC= 1.00D-01 BMatC= 1.12D-14 BMatP= 3.15D-14
 Rises=F IDIUse=1 WtCom= 1.00D+00 WtEn= 0.00D+00
 Coeff-Com:  0.954D-03-0.573D-01 0.186D+00 0.888D-02-0.147D+01 0.233D+01
 Coeff:      0.954D-03-0.573D-01 0.186D+00 0.888D-02-0.147D+01 0.233D+01
 Gap=     0.499 Goal=   None    Shift=    0.000
 RMSDP=2.32D-08 MaxDP=6.80D-07 DE= 8.30D-12 OVMax= 0.00D+00

 Cycle  16  Pass 1  IDiag  1:
 RMSU=  7.75D-09    CP:  1.00D+00  1.28D+00  2.54D+00  2.53D+00  3.00D+00
                    CP:  2.69D+00
 E= -383.231590470599     Delta-E=       -0.000000000004 Rises=F Damp=F AM=F Ri=F Fa=F
 DIIS: error= 1.05D-08 at cycle   7 NSaved=   7.
 NSaved= 7 IEnMin= 5 EnMin= -383.231590470603     IErMin= 7 ErrMin= 1.05D-08
 ErrMax= 1.05D-08  0.00D+00 EMaxC= 1.00D-01 BMatC= 1.11D-15 BMatP= 1.12D-14
 Rises=F IDIUse=1 WtCom= 1.00D+00 WtEn= 0.00D+00
 Coeff-Com:  0.744D-03-0.141D-01-0.245D-02 0.893D-01-0.906D-02-0.409D+00
 Coeff-Com:  0.135D+01
 Coeff:      0.744D-03-0.141D-01-0.245D-02 0.893D-01-0.906D-02-0.409D+00
 Coeff:      0.135D+01
 Gap=     0.499 Goal=   None    Shift=    0.000
 RMSDP=6.17D-09 MaxDP=1.70D-07 DE=-3.64D-12 OVMax= 0.00D+00

 SCF Done:  E(RHF) =  -383.231590471     A.U. after   16 cycles
            NFock= 16  Conv=0.62D-08     -V/T= 2.0073
 KE=         380.457389 PE=       -1996.408299 EE=         680.583914
 Leave Link  502 at Thu Mar 13 18:34:11 2025, MaxMem=  8589934592 cpu:               2.3 elap:               0.3
 (Enter /Users/vincenzobarone/Documents/gdv28/gdv/l701.exe)
 ... and contract with generalized density number  0.
 Compute integral first derivatives.
 Leave Link  701 at Thu Mar 13 18:34:12 2025, MaxMem=  8589934592 cpu:               0.2 elap:               0.0
 (Enter /Users/vincenzobarone/Documents/gdv28/gdv/l702.exe)
 L702 exits ... SP integral derivatives will be done elsewhere.
 Leave Link  702 at Thu Mar 13 18:34:12 2025, MaxMem=  8589934592 cpu:               0.0 elap:               0.0
 (Enter /Users/vincenzobarone/Documents/gdv28/gdv/l703.exe)
 Integral derivatives from FoFJK, PRISM(SPDF).
 Compute integral first derivatives, UseDBF=F ICtDFT=           0.
 Calling FoFJK, ICntrl=      2127 FMM=F ISym2X=0 I1Cent= 0 IOpClX= 0 NMat=1 NMatS=1 NMatT=0.
 FoFJK:  IHMeth= 1 ICntrl=    2127 DoSepK=F KAlg= 0 I1Cent=           0 FoldK=F
 IRaf=         0 NMat=       1 IRICut=       1 DoRegI=T DoRafI=F ISym2E= 0 IDoP0=0 IntGTp=1.
 FoFCou: FMM=F IPFlag=           0 FMFlag=      100000 FMFlg1=         800
         NFxFlg=           0 DoJE=F BraDBF=F KetDBF=F FulRan=T
         wScrn=  0.000000 ICntrl=      2127 IOpCl=  0 I1Cent=           0 NGrid=           0
         NMat0=    1 NMatS0=      1 NMatT0=    0 NMatD0=    1 NMtDS0=    0 NMtDT0=    0
 Symmetry not used in FoFCou.
 Leave Link  703 at Thu Mar 13 18:34:12 2025, MaxMem=  8589934592 cpu:               0.5 elap:               0.1
 (Enter /Users/vincenzobarone/Documents/gdv28/gdv/l716.exe)
 Dipole        =-3.11380899D-01-4.60094612D-01-2.84881506D-01
 ***** Axes restored to original set *****
 -------------------------------------------------------------------
 Center     Atomic                   Forces (Hartrees/Bohr)
 Number     Number              X              Y              Z
 -------------------------------------------------------------------
      1        6           0.004384527    0.027804538   -0.030566742
      2        6          -0.015264011    0.007620570   -0.004911020
      3        6          -0.015694553    0.007477720    0.031357540
      4        6          -0.016434345    0.013951402   -0.003108656
      5        6           0.011996049    0.002320691   -0.020554868
      6        6           0.001715402   -0.002060800    0.006177707
      7        6           0.013162312   -0.004604376    0.045815914
      8        6          -0.002150940   -0.003143512   -0.000803075
      9        6           0.000233826   -0.001249455    0.002188693
     10        6           0.006817587    0.004105527    0.004278329
     11        1          -0.002501199   -0.003079510   -0.006502300
     12        1          -0.003677967   -0.009868073    0.007073108
     13        1          -0.000506847    0.005774073   -0.002167789
     14        1           0.003807260   -0.012161736    0.000079922
     15        1           0.002852564   -0.006540216   -0.008680931
     16        1           0.000966196   -0.001064206    0.002256132
     17        1           0.002380812   -0.001646072   -0.002960580
     18        1          -0.004751433   -0.008820629    0.004368501
     19        1           0.007472070   -0.005011257   -0.011553297
     20        1           0.005207188   -0.008111879   -0.009043159
     21        1           0.001767124   -0.001207773   -0.000502349
     22        1          -0.001467882    0.000178764   -0.000783733
     23        1          -0.000046113   -0.000363915   -0.001246994
     24        1          -0.000932065   -0.000349179    0.000005389
     25        1          -0.000865610    0.000227765   -0.000212709
     26        1           0.001530046   -0.000178460   -0.000003033
 -------------------------------------------------------------------
 Cartesian Forces:  Max     0.045815914 RMS     0.010068982
 Leave Link  716 at Thu Mar 13 18:34:12 2025, MaxMem=  8589934592 cpu:               0.0 elap:               0.0
 (Enter /Users/vincenzobarone/Documents/gdv28/gdv/l103.exe)

 GradGradGradGradGradGradGradGradGradGradGradGradGradGradGradGradGradGrad
 Berny optimization.
 Using GEDIIS/GDIIS optimizer.
 FormGI is forming the generalized inverse of G from B-inverse, IUseBI=4.
 Eigenvalue    72 is   4.44D-09 should be greater than     0.000000 Eigenvector:
                         Rock3     RPck7     RPck6    RDef35    RDef37
   1                    0.91728  -0.20712   0.18449  -0.17962  -0.14282
                         Stre9     RPck5    RDef36    Stre12     Stre5
   1                   -0.08525  -0.08172   0.07153  -0.06488   0.06267
 NTrRot=    -1 NTRed=    73 NAtoms=    26 NSkip=     1 NRank=    72 IsLin=F EigSml=4.4375D-09
 Some coordinates are missing.
 Error in internal coordinate system.
 Error termination via Lnk1e in /Users/vincenzobarone/Documents/gdv28/gdv/l103.exe at Thu Mar 13 18:34:12 2025.
 Job cpu time:       0 days  0 hours  0 minutes 45.1 seconds.
 Elapsed time:       0 days  0 hours  0 minutes 48.4 seconds.
 File lengths (MBytes):  RWF=     27 Int=      0 D2E=      0 Chk=     20 Scr=      1

Program received signal SIGSEGV: Segmentation fault - invalid memory reference.

Backtrace for this error:
#0  0x164526d2f
#1  0x164525d83
#2  0x199c0ede3
