a-pinene B3/SVP                                                         
FOpt      RHF                                                         STO-3G              
Number of atoms                            I               26
Info1-9                                    I   N=           9
         109         109           0           0           0         100
           2           1           2
Full Title                                 C   N=           2
a-pinene B3/SVP         
Route                                      C   N=           4
#P OPT symmetry=loose geom=readallgic           
Point Group                                C   N=           2
C01                     
Point Group NOp                            I                1
Point Group Abelian NOp                    I                1
Point Group NClass                         I                1
Point Group NIrrep                         I                1
Point Group NGen                           I                1
Point Group NOp symm assign                I                1
Point Group Irrep Names                    H   N=           1
A       
Point Group Class Names                    H   N=           1
E       
Point Group Generators                     I   N=           1
           1
Point Group Class of Operators             I   N=           1
           1
Point Group Rotations                      R   N=          12
  1.00000000E+00  7.59780606E-17  1.24026993E-16  8.42734045E-17  1.00000000E+00
 -1.06451067E-17  1.25382107E-16 -6.61562579E-17  1.00000000E+00  0.00000000E+00
  0.00000000E+00  0.00000000E+00
Point Group Cell Trans                     I   N=           3
           0           0           0
Point Group Char Table                     R   N=           1
  1.00000000E+00
Point Group Atom Permutations              I   N=          26
           1           2           3           4           5           6
           7           8           9          10          11          12
          13          14          15          16          17          18
          19          20          21          22          23          24
          25          26
Charge                                     I                0
Multiplicity                               I                1
Number of electrons                        I               76
Number of alpha electrons                  I               38
Number of beta electrons                   I               38
Number of basis functions                  I               66
Number of independent functions            I               66
Number of point charges in /Mol/           I                0
Number of translation vectors              I                0
Atomic numbers                             I   N=          26
           6           6           6           6           6           6
           6           6           6           6           1           1
           1           1           1           1           1           1
           1           1           1           1           1           1
           1           1
Nuclear charges                            R   N=          26
  6.00000000E+00  6.00000000E+00  6.00000000E+00  6.00000000E+00  6.00000000E+00
  6.00000000E+00  6.00000000E+00  6.00000000E+00  6.00000000E+00  6.00000000E+00
  1.00000000E+00  1.00000000E+00  1.00000000E+00  1.00000000E+00  1.00000000E+00
  1.00000000E+00  1.00000000E+00  1.00000000E+00  1.00000000E+00  1.00000000E+00
  1.00000000E+00  1.00000000E+00  1.00000000E+00  1.00000000E+00  1.00000000E+00
  1.00000000E+00
Current cartesian coordinates              R   N=          78
 -9.79693047E-01  9.77472821E-01 -1.24090356E+00 -2.20084373E+00  2.88404073E+00
  5.74615169E-01  3.53730674E+00  2.60822793E+00  1.37650147E-01  4.19783405E+00
 -1.31637533E-02  1.29894950E+00  2.47121068E+00 -1.31745965E+00 -6.74199826E-01
 -3.85734746E-01 -1.68706565E+00 -3.94685112E-03  1.88225062E+00  1.28889447E+00
 -1.89444828E+00 -1.04717950E+00 -2.00598545E+00  2.82674771E+00 -1.56850289E+00
 -3.88247335E+00 -1.52870860E+00 -5.01740316E+00  2.26610004E+00  2.05433100E-01
  3.32249556E+00 -2.87102927E+00 -1.71614278E+00 -5.97291000E+00  2.21367116E+00
  2.02161104E+00 -5.80495421E+00  3.85645599E+00 -8.39974374E-01 -5.43257141E+00
  5.44861651E-01 -8.37672100E-01  5.16495396E+00  3.60531779E+00 -6.19033460E-01
  6.17321167E+00 -5.16076566E-01  1.04899351E+00  3.70867071E+00 -2.70513858E-01
  3.27466714E+00 -2.09748364E+00  7.41414969E-01 -2.95474650E+00  2.50420867E+00
  3.86840825E+00  1.39018625E+00  2.32339109E+00  1.70912230E+00 -3.85514594E+00
 -4.67107134E-01 -3.82569149E-01  3.93615645E+00 -3.06923901E+00 -2.25641146E+00
  3.06721307E+00 -1.10606221E-01 -3.66839774E+00  3.58109266E+00 -1.05788912E+00
 -3.75228171E+00 -3.51117037E+00 -9.03934663E-01 -5.68684781E+00 -8.09110968E-01
 -3.61570635E+00 -3.84665336E+00 -1.38405476E+00
Number of symbols in /Mol/                 I                0
Int Atom Types                             I   N=          26
           0           0           0           0           0           0
           0           0           0           0           0           0
           0           0           0           0           0           0
           0           0           0           0           0           0
           0           0
Force Field                                I                0
Atom Types                                 C   N=          26
                                                            
                                                            
                                                            
                                                            
                                                            
            
MM charges                                 R   N=          26
  0.00000000E+00  0.00000000E+00  0.00000000E+00  0.00000000E+00  0.00000000E+00
  0.00000000E+00  0.00000000E+00  0.00000000E+00  0.00000000E+00  0.00000000E+00
  0.00000000E+00  0.00000000E+00  0.00000000E+00  0.00000000E+00  0.00000000E+00
  0.00000000E+00  0.00000000E+00  0.00000000E+00  0.00000000E+00  0.00000000E+00
  0.00000000E+00  0.00000000E+00  0.00000000E+00  0.00000000E+00  0.00000000E+00
  0.00000000E+00
Integer atomic weights                     I   N=          26
          12          12          12          12          12          12
          12          12          12          12           1           1
           1           1           1           1           1           1
           1           1           1           1           1           1
           1           1
Real atomic weights                        R   N=          26
  1.20000000E+01  1.20000000E+01  1.20000000E+01  1.20000000E+01  1.20000000E+01
  1.20000000E+01  1.20000000E+01  1.20000000E+01  1.20000000E+01  1.20000000E+01
  1.00782504E+00  1.00782504E+00  1.00782504E+00  1.00782504E+00  1.00782504E+00
  1.00782504E+00  1.00782504E+00  1.00782504E+00  1.00782504E+00  1.00782504E+00
  1.00782504E+00  1.00782504E+00  1.00782504E+00  1.00782504E+00  1.00782504E+00
  1.00782504E+00
Atom fragment info                         I   N=          26
           0           0           0           0           0           0
           0           0           0           0           0           0
           0           0           0           0           0           0
           0           0           0           0           0           0
           0           0
Atom residue num                           I   N=          26
           0           0           0           0           0           0
           0           0           0           0           0           0
           0           0           0           0           0           0
           0           0           0           0           0           0
           0           0
Nuclear spins                              I   N=          26
           0           0           0           0           0           0
           0           0           0           0           1           1
           1           1           1           1           1           1
           1           1           1           1           1           1
           1           1
Nuclear ZEff                               R   N=          26
 -3.60000000E+00 -3.60000000E+00 -3.60000000E+00 -3.60000000E+00 -3.60000000E+00
 -3.60000000E+00 -3.60000000E+00 -3.60000000E+00 -3.60000000E+00 -3.60000000E+00
 -1.00000000E+00 -1.00000000E+00 -1.00000000E+00 -1.00000000E+00 -1.00000000E+00
 -1.00000000E+00 -1.00000000E+00 -1.00000000E+00 -1.00000000E+00 -1.00000000E+00
 -1.00000000E+00 -1.00000000E+00 -1.00000000E+00 -1.00000000E+00 -1.00000000E+00
 -1.00000000E+00
Nuclear ZNuc                               R   N=          26
  6.00000000E+00  6.00000000E+00  6.00000000E+00  6.00000000E+00  6.00000000E+00
  6.00000000E+00  6.00000000E+00  6.00000000E+00  6.00000000E+00  6.00000000E+00
  1.00000000E+00  1.00000000E+00  1.00000000E+00  1.00000000E+00  1.00000000E+00
  1.00000000E+00  1.00000000E+00  1.00000000E+00  1.00000000E+00  1.00000000E+00
  1.00000000E+00  1.00000000E+00  1.00000000E+00  1.00000000E+00  1.00000000E+00
  1.00000000E+00
Nuclear QMom                               R   N=          26
  0.00000000E+00  0.00000000E+00  0.00000000E+00  0.00000000E+00  0.00000000E+00
  0.00000000E+00  0.00000000E+00  0.00000000E+00  0.00000000E+00  0.00000000E+00
  0.00000000E+00  0.00000000E+00  0.00000000E+00  0.00000000E+00  0.00000000E+00
  0.00000000E+00  0.00000000E+00  0.00000000E+00  0.00000000E+00  0.00000000E+00
  0.00000000E+00  0.00000000E+00  0.00000000E+00  0.00000000E+00  0.00000000E+00
  0.00000000E+00
Nuclear GFac                               R   N=          26
  0.00000000E+00  0.00000000E+00  0.00000000E+00  0.00000000E+00  0.00000000E+00
  0.00000000E+00  0.00000000E+00  0.00000000E+00  0.00000000E+00  0.00000000E+00
  2.79284600E+00  2.79284600E+00  2.79284600E+00  2.79284600E+00  2.79284600E+00
  2.79284600E+00  2.79284600E+00  2.79284600E+00  2.79284600E+00  2.79284600E+00
  2.79284600E+00  2.79284600E+00  2.79284600E+00  2.79284600E+00  2.79284600E+00
  2.79284600E+00
MicOpt                                     I   N=          26
          -1          -1          -1          -1          -1          -1
          -1          -1          -1          -1          -1          -1
          -1          -1          -1          -1          -1          -1
          -1          -1          -1          -1          -1          -1
          -1          -1
Number of residues                         I                0
Number of secondary structures             I                0
Redundant internal dimensions              I   N=           4
          73           0           0           0
CrData-IFlags                              I   N=          16
          -2        1219           1          73        2761         228
           1           0           0           1           0         260
         260     1167438     1110000           0
CrData-InfCrd                              I   N=       12190
         100          -1           1           4           1           0
           1          -1          -1           1          62          -1
           5           1           1           0           1          -1
          -1           2           2           0           6           3
           1           0         111           0           6           3
          59          -1           9           3           1           3
           1          -1          -1           1         100          -1
          12           4           4           0           1          -1
          -1           1          62          -1          16           1
           4           0           1          -1          -1           2
           2           0          17           3           4           0
         111          13          19           3          59          -1
          20           3           4           3           1          -1
          -1           1         100          -1          23           4
           7           0           1          -1          -1           1
          62          -1          27           1           7           0
           1          -1          -1           2           2           0
          28           3           7           0         111          26
          32           3          59          -1          31           3
           7           3           1          -1          -1           1
         100          -1          34           4          10           0
           1          -1          -1           1          62          -1
          38           1          10           0           1          -1
          -1           2           2           0          39           3
          10           0         111          39          45           3
          59          -1          42           3          10           3
           1          -1          -1           1         100          -1
          45           4          13           0           1          -1
          -1           1          62          -1          49           1
          13           0           1          -1          -1           2
           2           0          50           3          13           0
         111          53          59           3          59          -1
          53           3          13           3           1          -1
          -1           1         100          -1          56           4
          16           0           1          -1          -1           1
          62          -1          60           1          16           0
           1          -1          -1           2           2           0
          61           3          16           0         111          66
          72           3          59          -1          64           3
          16           3           1          -1          -1           1
         100          -1          67           4          19           0
           1          -1          -1           1          62          -1
          71           1          19           0           1          -1
          -1           2           2           0          72           3
          19           0         111          80          86           3
          59          -1          75           3          19           3
           1          -1          -1           1         100          -1
          78           4          22           0           1          -1
          -1           1          62          -1          82           1
          22           0           1          -1          -1           2
           2           0          83           3          22           0
         111          93          99           3          59          -1
          86           3          22           3           1          -1
          -1           1         100          -1          89           4
          25           0           1          -1          -1           1
          62          -1          93           1          25           0
           1          -1          -1           2           2           0
          94           3          25           0         111         107
         113           3          59          -1          97           3
          25           3           1          -1          -1           1
         100          -1         100           4          28           0
           1          -1          -1           1          62          -1
         104           1          28           0           1          -1
          -1           2           2           0         105           3
          28           0         111         120         127           3
          59          -1         108           3          28           3
           1          -1          -1           1         100          -1
         111           4          31           0           1          -1
          -1           1          62          -1         115           1
          31           0           1          -1          -1           2
           2           0         116           3          31           0
         111         135         142           3          59          -1
         119           3          31           3           1          -1
          -1           1         100          -1         122           4
          34           0           1          -1          -1           1
          62          -1         126           1          34           0
           1          -1          -1           2           2           0
         127           3          34           0         111         150
         157           3          59          -1         130           3
          34           3           1          -1          -1           1
         100          -1         133           4          37           0
           1          -1          -1           1          62          -1
         137           1          37           0           1          -1
          -1           2           2           0         138           3
          37           0         111         164         171           3
          59          -1         141           3          37           3
           1          -1          -1           1         100          -1
         144           4          40           0           1          -1
          -1           1          62          -1         148           1
          40           0           1          -1          -1           2
           2           0         149           3          40           0
         111         178         185           3          59          -1
         152           3          40           3           1          -1
          -1           1         100          -1         155           4
          43           0           1          -1          -1           1
          62          -1         159           1          43           0
           1          -1          -1           2           2           0
         160           3          43           0         111         193
         200           3          59          -1         163           3
          43           3           1          -1          -1           1
         100          -1         166           4          46           0
           1          -1          -1           1          62          -1
         170           1          46           0           1          -1
          -1           2           2           0         171           3
          46           0         111         207         214           3
          59          -1         174           3          46           3
           1          -1          -1           1         100          -1
         177           4          49           0           1          -1
          -1           1          62          -1         181           1
          49           0           1          -1          -1           2
           2           0         182           3          49           0
         111         221         228           3          59          -1
         185           3          49           3           1          -1
          -1           1         100          -1         188           4
          52           0           1          -1          -1           1
          62          -1         192           1          52           0
           1          -1          -1           2           2           0
         193           3          52           0         111         236
         243           3          59          -1         196           3
          52           3           1          -1          -1           1
         100          -1         199           4          55           0
           1          -1          -1           1          62          -1
         203           1          55           0           1          -1
          -1           2           2           0         204           3
          55           0         111         251         258           3
          59          -1         207           3          55           3
           1          -1          -1           1         100          -1
         210           4          58           0           1          -1
          -1           1          62          -1         214           1
          58           0           1          -1          -1           2
           2           0         215           3          58           0
         111         266         273           3          59          -1
         218           3          58           3           1          -1
          -1           1         100          -1         221           4
          61           0           1          -1          -1           1
          62          -1         225           1          61           0
           1          -1          -1           2           2           0
         226           3          61           0         111         281
         288           3          59          -1         229           3
          61           3           1          -1          -1           1
         100          -1         232           4          64           0
           1          -1          -1           1          62          -1
         236           1          64           0           1          -1
          -1           2           2           0         237           3
          64           0         111         296         303           3
          59          -1         240           3          64           3
           1          -1          -1           1         100          -1
         243           4          67           0           1          -1
          -1           1          62          -1         247           1
          67           0           1          -1          -1           2
           2           0         248           3          67           0
         111         311         318           3          59          -1
         251           3          67           3           1          -1
          -1           1         100          -1         254           4
          70           0           1          -1          -1           1
          62          -1         258           1          70           0
           1          -1          -1           2           2           0
         259           3          70           0         111         326
         333           3          59          -1         262           3
          70           3           1          -1          -1           1
         100          -1         265           4          73           0
           1          -1          -1           1          62          -1
         269           1          73           0           1          -1
          -1           2           2           0         270           3
          73           0         111         341         348           3
          59          -1         273           3          73           3
           1          -1          -1           1         100          -1
         276           4          76           0           1          -1
          -1           1          62          -1         280           1
          76           0           1          -1          -1           2
           2           0         281           3          76           0
         111         357         364           3          59          -1
         284           3          76           3           1          -1
          -1           1         100          -1         287           4
          79           0           1          -1          -1           1
          62          -1         291           1          79           0
           1          -1          -1           2           2           0
         292           3          79           0         111         373
         380           3          59          -1         295           3
          79           3           1          -1          -1           1
          58          -1         298           0          82           1
           1          -1          -1           1         100          -1
         298           4          83           0           1          -1
          -1           1          61          -1         302           1
          83           0           1          -1          -1           3
          61          -1         303           1          83           0
           1          -1          -1           3          52          -1
         304           2          83           0           1          -1
          -1           4          52          -1         306           2
          83           0           1          -1          -1           5
          73          -1         308           1          83           0
           1          -1          -1           6           3          -1
         309           4          83           0         221          -1
          -1           7          52          -1         313           2
          83           0           1          -1          -1           8
          58          -1         315           0          83           1
           1          -1          -1           1         100          -1
         315           4          84           0           1          -1
          -1           1          61          -1         319           1
          84           0           1          -1          -1           3
          52          -1         320           2          84           0
           1          -1          -1           4          52          -1
         322           2          84           0           1          -1
          -1           5          73          -1         324           1
          84           0           1          -1          -1           6
           3          -1         325           4          84           0
         221          -1          -1           7          52          -1
         329           2          84           0           1          -1
          -1           8          51          -1         331           2
          84           0           1          -1          -1           9
         100          -1         333           4          84           0
           1          -1          -1           1          61          -1
         337           1          84           0           1          -1
          -1           3          52          -1         338           2
          84           0           1          -1          -1           4
          52          -1         340           2          84           0
           1          -1          -1           5          73          -1
         342           1          84           0           1          -1
          -1           6           3          -1         343           4
          84           0         221          -1          -1           7
          52          -1         347           2          84           0
           1          -1          -1           8          51           0
         349           2          84           0         201         389
         395          10          59          -1         351           3
          84           3           1          -1          -1           1
          58          -1         354           0          87           1
           1          -1          -1           1          52          -1
         354           2          88           0           1          -1
          -1           8          52          -1         356           2
          88           0           1          -1          -1           8
          51           0         358           2          88           0
         201         403         409           9          59          -1
         360           3          88           3           1          -1
          -1           1         100          -1         363           4
          91           0           1          -1          -1           1
          61          -1         367           1          91           0
           1          -1          -1           3          61          -1
         368           1          91           0           1          -1
          -1           3          52          -1         369           2
          91           0           1          -1          -1           4
          52          -1         371           2          91           0
           1          -1          -1           5          73          -1
         373           1          91           0           1          -1
          -1           6           3          -1         374           4
          91           0         221          -1          -1           7
          52          -1         378           2          91           0
           1          -1          -1           8         100          -1
         380           4          91           0           1          -1
          -1           1          52          -1         384           2
          91           0           1          -1          -1           4
          52          -1         386           2          91           0
           1          -1          -1           5          58          -1
         388           0          91           1           1          -1
          -1           1          52          -1         388           2
          92           0           1          -1          -1           6
          73          -1         390           1          92           0
           1          -1          -1           7           3          -1
         391           4          92           0         221          -1