H2CO                                                                    
FOpt      RHF3c                                                       STO-3G              
Number of atoms                            I                4
Info1-9                                    I   N=           9
          20          20           0           0           0         110
           2          18       -1102
Full Title                                 C   N=           1
H2CO        
Route                                      C   N=           5
#HF3C OPT symmetry=loose geom=(readallgic,gicallsym)        
Point Group                                C   N=           2
C02V                    
Point Group NOp                            I                4
Point Group Abelian NOp                    I                4
Point Group NClass                         I                4
Point Group NIrrep                         I                4
Point Group NGen                           I                2
Point Group NOp symm assign                I                2
Point Group Irrep Names                    H   N=           4
A1      A2      B1      B2      
Point Group Class Names                    H   N=           4
E       C2      Sgm     Sgm'    
Point Group Generators                     I   N=           2
           2           3
Point Group Class of Operators             I   N=           4
           1           2           3           4
Point Group Rotations                      R   N=          48
  1.00000000E+00  4.58098850E-62 -2.32283713E-31  4.58098850E-62  1.00000000E+00
 -5.91645679E-31 -2.32283713E-31 -5.91645679E-31  1.00000000E+00  0.00000000E+00
  0.00000000E+00  0.00000000E+00 -1.00000000E+00 -1.22464680E-16 -7.76798809E-32
  1.22464680E-16 -1.00000000E+00  0.00000000E+00 -7.74279043E-32  4.93038066E-32
  1.00000000E+00  0.00000000E+00  0.00000000E+00  0.00000000E+00 -1.00000000E+00
  2.29049425E-62  7.74279043E-32 -9.86076132E-32  1.00000000E+00 -5.91645679E-31
  1.19787322E-31 -5.91645679E-31  1.00000000E+00  0.00000000E+00  0.00000000E+00
  0.00000000E+00  1.00000000E+00 -1.22464680E-16 -3.87391498E-31 -1.22464680E-16
 -1.00000000E+00  0.00000000E+00 -4.29498939E-31  4.93038066E-32  1.00000000E+00
  0.00000000E+00  0.00000000E+00  0.00000000E+00
Point Group Cell Trans                     I   N=          12
           0           0           0           0           0           0
           0           0           0           0           0           0
Point Group Char Table                     R   N=          16
  1.00000000E+00  1.00000000E+00  1.00000000E+00  1.00000000E+00  1.00000000E+00
  1.00000000E+00 -1.00000000E+00 -1.00000000E+00  1.00000000E+00 -1.00000000E+00
 -1.00000000E+00  1.00000000E+00  1.00000000E+00 -1.00000000E+00  1.00000000E+00
 -1.00000000E+00
Point Group Atom Permutations              I   N=          16
           1           2           3           4           1           2
           4           3           1           2           3           4
           1           2           4           3
Charge                                     I                0
Multiplicity                               I                1
Number of electrons                        I               16
Number of alpha electrons                  I                8
Number of beta electrons                   I                8
Number of basis functions                  I               12
Number of independent functions            I               12
Number of point charges in /Mol/           I                0
Number of translation vectors              I                0
Atomic numbers                             I   N=           4
           8           6           1           1
Nuclear charges                            R   N=           4
  8.00000000E+00  6.00000000E+00  1.00000000E+00  1.00000000E+00
Current cartesian coordinates              R   N=          12
 -2.28252934E-31 -2.71132044E-18  1.28369715E+00  2.47091962E-31  9.95694328E-17
 -1.00199640E+00  4.78300568E-31  1.76392596E+00 -2.12879940E+00 -2.16018628E-16
 -1.76392596E+00 -2.12879940E+00
Number of symbols in /Mol/                 I                0
Int Atom Types                             I   N=           4
           0           0           0           0
Force Field                                I                0
Atom Types                                 C   N=           4
                                                
MM charges                                 R   N=           4
  0.00000000E+00  0.00000000E+00  0.00000000E+00  0.00000000E+00
Integer atomic weights                     I   N=           4
          16          12           1           1
Real atomic weights                        R   N=           4
  1.59949146E+01  1.20000000E+01  1.00782504E+00  1.00782504E+00
Atom fragment info                         I   N=           4
           0           0           0           0
Atom residue num                           I   N=           4
           0           0           0           0
Nuclear spins                              I   N=           4
           0           0           1           1
Nuclear ZEff                               R   N=           4
 -5.60000000E+00 -3.60000000E+00 -1.00000000E+00 -1.00000000E+00
Nuclear ZNuc                               R   N=           4
  8.00000000E+00  6.00000000E+00  1.00000000E+00  1.00000000E+00
Nuclear QMom                               R   N=           4
  0.00000000E+00  0.00000000E+00  0.00000000E+00  0.00000000E+00
Nuclear GFac                               R   N=           4
  0.00000000E+00  0.00000000E+00  2.79284600E+00  2.79284600E+00
MicOpt                                     I   N=           4
          -1          -1          -1          -1
Number of residues                         I                0
Number of secondary structures             I                0
Redundant internal dimensions              I   N=           4
           6           0           0           0
CrData-IFlags                              I   N=          16
          -2         108           1           6         217          20
           1           0           0           1           0          40
          40     1023858     2110000           0
CrData-InfCrd                              I   N=        1080
         100          -1           1           4           1           0
           1          -1          -1           1          62          -1
           5           1           1           0           1          -1
          -1           2           2          -1           6           3
           1           0         111           0           3           3
         100          -1           9           4           1           0
           1          -1          -1           1          62          -1
          13           1           1           0           1          -1
          -1           2           2          -1          14           3
           1           0         111          10          13           3
         100          -1          17           4           1           0
           1          -1          -1           1          62          -1
          21           1           1           0           1          -1
          -1           2           2          -1          22           3
           1           0         111          20          23           3
          58          -1          25           0           1           1
           1          -1          -1           1         100          -1
          25           4           2           0           1          -1
          -1           1          61          -1          29           1
           2           0           1          -1          -1           3
          61          -1          30           1           2           0
           1          -1          -1           3          52          -1
          31           2           2           0           1          -1
          -1           4          52          -1          33           2
           2           0           1          -1          -1           5
          73          -1          35           1           2           0
           1          -1          -1           6           3          -1
          36           4           2           0         221          -1
          -1           7          52          -1          40           2
           2           0           1          -1          -1           8
          58          -1          42           0           2           1
           1          -1          -1           1         100          -1
          42           4           3           0           1          -1
          -1           1          61          -1          46           1
           3           0           1          -1          -1           3
          52          -1          47           2           3           0
           1          -1          -1           4          52          -1
          49           2           3           0           1          -1
          -1           5          58          -1          51           0
           3           1           1          -1          -1           1
          52          -1          51           2           4           0
           1          -1          -1           6          73          -1
          53           1           4           0           1          -1
          -1           7           3          -1          54           4
           4           0         221          -1          -1           8
          52          -1          58           2           4           0
           1          -1          -1           9          51          -1
          60           2           4           0           1          -1
          -1          10         100          -1          62           4
           4           0           1          -1          -1           1
          52          -1          66           2           4           0
           1          -1          -1           4          52          -1
          68           2           4           0           1          -1
          -1           5          52          -1          70           2
           4           0           1          -1          -1           6
          73          -1          72           1           4           0
           1          -1          -1           7           3          -1
          73           4           4           0         221          -1
          -1           8          52          -1          77           2
           4           0           1          -1          -1           9
          51          -1          79           2           4           0
         201          30          36          11          58          -1
          81           0           4           1           1          -1
          -1           1          52          -1          81           2
           5           0           1          -1          -1           9
          52          -1          83           2           5           0
           1          -1          -1           9          51          -1
          85           2           5           0         201          43
          49          10          58          -1          87           0
           5           1           1          -1          -1           1
           1          -1          87           2           6           0
           1          -1          -1           1           1          -1
          89           2           6           0           1          -1
          -1           1          51          -1          91           2
           6           0           1          -1          -1           2
           1          -1          93           2           6           0
           1          -1          -1           1          51          -1
          95           2           6           0           1          -1
          -1           2           1          -1          97           2
           6           0           1          -1          -1           1
          51          -1          99           2           6           0
           1          -1          -1           2           1          -1
         101           2           6           0           1          -1
          -1           1           1          -1         103           2
           6           0           1          -1          -1           1
          51          -1         105           2           6           0
           1          -1          -1           2           1          -1
         107           2           6           0           1          -1
          -1           1          51          -1         109           2
           6           0           1          -1          -1           2
           1          -1         111           2           6           0
           1          -1          -1           1          51          -1
         113           2           6           0           1          -1
          -1           2           1          -1         115           2
           6           0           1          -1          -1           1
           1          -1         117           2           6           0
           1          -1          -1           1          51          -1
         119           2           6           0           1          -1
          -1           2           1          -1         121           2
           6           0           1          -1          -1           1
          51          -1         123           2           6           0
           1          -1          -1           2           1          -1
         125           2           6           0           1          -1
          -1           1          51          -1         127           2
           6           0           1          -1          -1           2
          52          -1         129           2           6           0
           1          -1          -1           3          52          -1
         131           2           6           0           1          -1
          -1           3          51          -1         133           2
           6           0           1          -1          -1           4
          52          -1         135           2           6           0
           1          -1          -1           3          52          -1
         137           2           6           0           1          -1
          -1           3          51          -1         139           2
           6           0           1          -1          -1           4
          52          -1         141           2           6           0
           1          -1          -1           3          52          -1
         143           2           6           0           1          -1
          -1           3          51          -1         145           2
           6           0           1          -1          -1           4
          52          -1         147           2           6           0
           1          -1          -1           5          52          -1
         149           2           6           0           1          -1
          -1           3          52          -1         151           2
           6           0           1          -1          -1           5
          52          -1         153           2           6           0
           1          -1          -1           5          50          -1
         155           2           6           0           1          -1
          -1           6          52          -1         157           2
           6           0           1          -1          -1           3
          50          -1         159           2           6           0
           1          -1          -1           4          52          -1
         161           2           6           0           1          -1
          -1           5          50          -1         163           2
           6           0           1          -1          -1           6
          52          -1         165           2           6           0
           1          -1          -1           5          50          -1
         167           2           6           0           1          -1
          -1           7          52          -1         169           2
           6           0           1          -1          -1           3
          50          -1         171           2           6           0
           1          -1          -1           5          52          -1
         173           2           6           0           1          -1
          -1           5          50          -1         175           2
           6           0           1          -1          -1           7
          52          -1         177           2           6           0
           1          -1          -1           8          62          -1
         179           1           6           0           1          -1
          -1           9          53          -1         180           2
           6           0           1          -1          -1          10
          73          -1         182           1           6           0
           1          -1          -1          11          51          -1
         183           2           6           0           1          -1
          -1          12           6           0         185           5
           6           0         221           0           3          13
          58          -1         190           0           6           1
           1          -1          -1           1          52           0
         190           2           7           0         101          14
          19           4          58          -1         192           0
           7           1           1          -1          -1           1
          52          -1         192           2           8           0
           1          -1          -1           4          52          -1
         194           2           8           0           1          -1
          -1           4          50           0         196           2
           8           0         101          26          31           5
          52           0         198           2           8           0
         201          38          46          12          58          -1
         200           0           8           1           1          -1
          -1           1          52          -1         200           2
           9           0           1          -1          -1           4
          50           1         202           2           9           0
         101          54          59           5          52           1
         204           2           9           0         201          67
          75          11          59          -1         206           3
           9           3           1          -1          -1           1
          59          -1         209           3          12           3
           1          -1          -1           1          59          -1
         212           3          15           3           1          -1
          -1           1          59          -1         215           3
          18           3           1          -1          -1           1
CrData-IVars                               I   N=         217
           1           2           1           2           1           2
           1           2           2           3           2           3
           4           5           2           3           2           4
           2           4           7           8           2           4
           2           3           2           4           5           8
          12          13          11          14          15          16
           3           2           4          10          17           1
           2           2           3           2          12          21
          20          22          23          24          25          26
           1           2           3          19          27          18
          28           1           2           2           4          13
          21          30          31          24          32          33
          34           1           2           4          19          35
          29          36          27          38          35          38
          39          40           2          -1           1          -1
          44          43           3          -1          46          43
           4          -1          48          43           2          -2
           1          -2          51          50           3          -2
          53          50           4          -2          55          50
           2          -3           1          -3          58          57
           3          -3          60          57           4          -3
          62          57          52          61          59          54
          64          65          59          47          45          61
          67          68          45          54          52          47
          70          71          66          66          49          49
          66          49          69          69          73          76
          56          56          74          78          69          56
          75          80          72          72          77          82
          63          63          79          84          72          63
          81          86          83          85          88          87
          89          90          91          42          92           2
           1           3           4           3          94           6
          96           9          96          97          98          37
          94           9         101          97         102          41
          94           0          12          37           0          12
          41           0          12         100           0          12
         104
CrData-RVars                               R   N=          20
  8.16500000E-01  4.08200000E-01 -1.00000000E+00  7.07100000E-01  1.57079633E+00
  1.00000000E+00  7.07106781E-01 -7.07106781E-01  1.02598133E+01  0.00000000E+00
  0.00000000E+00  8.88568066E+00  0.00000000E+00  0.00000000E+00  1.02598133E+01
  0.00000000E+00  0.00000000E+00  8.88568066E+00  0.00000000E+00  0.00000000E+00
CrData-NCrdSt                              I   N=           1
           6
CrData-ICrdSt                              I   N=           6
          93          95          99         100         103         104
CrData-LabNumbers                          I   N=           3
     8000000     1000003          83
CrData-Labels                              H   N=          18
U1\U(2,1,3,4)\s1R1\GIC-95\s2R2\GIC-99\s3SymD1\GIC-100\s4R2\GIC-103\s5Roc
k2\GIC-104\                                                             
Redundant internal coordinates             R   N=           6
  0.00000000E+00  2.28569354E+00  2.96010803E+00 -1.09684128E-01  0.00000000E+00
  4.44089210E-16
ZRed-IntVec                                I   N=           6
           0           0           0           0          -1          -1
ZRed-FPVec                                 R   N=           6
  0.00000000E+00  0.00000000E+00  0.00000000E+00  0.00000000E+00  0.00000000E+00
  0.00000000E+00
ZRed-Constraint1                           R   N=           6
  0.00000000E+00  2.30546587E+00  2.88612462E+00 -4.25082368E-02  0.00000000E+00
  0.00000000E+00
ZRed-Constraint2                           R   N=           6
  2.30546587E+00  2.04079829E+00  2.04079829E+00 -4.25082368E-02  0.00000000E+00
  0.00000000E+00
SymInf integers                            I   N=          26
           2           4           1           1           1          -1
          -1           1          -1           1           1           1
          -1           1           0           0           0           0
           0           0           0           0           0           0
           0           0
RotTr to input orientation                 R   N=          12
  1.04447067E-15 -1.00000000E+00  7.98768157E-16 -3.43833349E-16  7.98768157E-16
  1.00000000E+00 -1.00000000E+00 -1.04447067E-15 -3.43833349E-16  1.26065773E+00
  5.50367054E-17  1.88972612E+00
Number of contracted shells                I                8
Number of primitive shells                 I               24
Pure/Cartesian d shells                    I                0
Pure/Cartesian f shells                    I                0
Highest angular momentum                   I                1
Largest degree of contraction              I                3
Shell types                                I   N=           8
           0           0           1           0           0           1
           0           0
Number of primitives per shell             I   N=           8
           3           3           3           3           3           3
           3           3
Shell to atom map                          I   N=           8
           1           1           1           2           2           2
           3           4
Primitive exponents                        R   N=          24
  2.81866580E+02  4.24160000E+01  9.09562000E+00  1.17893260E+01  9.12894000E-01
  2.86661000E-01  8.27414000E+00  1.71546300E+00  3.83013000E-01  1.53172260E+02
  2.30730300E+01  4.92329000E+00  6.61661200E+00  5.25856000E-01  1.69958000E-01
  4.91292000E+00  9.97616000E-01  2.32685000E-01  7.03406300E+00  1.06475600E+00
  2.36559000E-01  7.03406300E+00  1.06475600E+00  2.36559000E-01
Contraction coefficients                   R   N=          24
  6.90600291E-02  3.93159166E-01  6.65669281E-01 -8.08199297E-02  5.82089494E-01
  4.97159568E-01  1.24271003E-01  4.76594010E-01  6.13044013E-01  7.07400095E-02
  3.95380053E-01  6.63311089E-01 -8.13799884E-02  5.74852918E-01  5.02412928E-01
  1.09930928E-01  4.62712695E-01  6.27513586E-01  7.04520124E-02  4.07826072E-01
  6.47752114E-01  7.04520124E-02  4.07826072E-01  6.47752114E-01
Coordinates of each shell                  R   N=          24
  4.45468863E-31 -9.49367337E-32  1.28369715E+00  4.45468863E-31 -9.49367337E-32
  1.28369715E+00  4.45468863E-31 -9.49367337E-32  1.28369715E+00 -3.47713007E-31
  7.41033548E-32 -1.00199640E+00 -3.47713007E-31  7.41033548E-32 -1.00199640E+00
 -3.47713007E-31  7.41033548E-32 -1.00199640E+00 -9.55656072E-33  1.76392596E+00
 -2.12879940E+00 -2.16018628E-16 -1.76392596E+00 -2.12879940E+00
Constraint Structure                       R   N=          12
 -1.26168332E-15  4.33456169E-16  1.26065773E+00  1.14630817E-15 -3.59239883E-16
 -1.04480814E+00  3.64141612E-15  1.74931947E+00 -2.09587381E+00  8.46814741E-16
 -1.74931947E+00 -2.09587381E+00
Constraint Force Constants                 R   N=          12
  0.00000000E+00  0.00000000E+00  0.00000000E+00  0.00000000E+00  0.00000000E+00
  0.00000000E+00  0.00000000E+00  0.00000000E+00  0.00000000E+00  0.00000000E+00
  0.00000000E+00  0.00000000E+00
Num ILSW                                   I              100
ILSW                                       I   N=         100
           0           0           0           1           2           0
           0           0           0           0        1000          -1
           5           0           0           0           2          -1
           0           0           1           0           1           0
           1           0           0           0           0           0
           0           0      100000           0          -1           0
           0           0           0           0           0           0
           0           0           0           1           0           0
           0 -2000000000           1           0           0           0
           0           0       12141          68           0           0
           0           0         111           0           0           0
           0           0           0           0           0           1
           0           0           0           0           0           0
           0           0           0           0           0           0
           0           0           0           0           0           0
           0           0           0           0           0           0
           0           0           0           0
Num RLSW                                   I               68
RLSW                                       R   N=          68
  0.00000000E+00  0.00000000E+00  0.00000000E+00  0.00000000E+00  1.00000000E+00
  0.00000000E+00  0.00000000E+00  1.00000000E+00  0.00000000E+00  0.00000000E+00
  0.00000000E+00  0.00000000E+00  1.00000000E+00  0.00000000E+00  0.00000000E+00
  0.00000000E+00  0.00000000E+00  1.00000000E+00  0.00000000E+00  0.00000000E+00
  0.00000000E+00  0.00000000E+00  1.00000000E+00  0.00000000E+00  0.00000000E+00
  0.00000000E+00  0.00000000E+00  1.00000000E+00  0.00000000E+00  0.00000000E+00
  0.00000000E+00  0.00000000E+00  1.00000000E+00  0.00000000E+00  0.00000000E+00
  0.00000000E+00  0.00000000E+00  0.00000000E+00  1.00000000E+00  1.00000000E+00
  0.00000000E+00  1.00000000E+00  0.00000000E+00  0.00000000E+00  0.00000000E+00
  0.00000000E+00  0.00000000E+00  0.00000000E+00  0.00000000E+00  0.00000000E+00
  0.00000000E+00  0.00000000E+00  1.00000000E+00  1.00000000E+00  1.00000000E+00
  1.00000000E+00  1.00000000E+00  1.00000000E+00  0.00000000E+00  0.00000000E+00
  0.00000000E+00  0.00000000E+00  0.00000000E+00  0.00000000E+00  0.00000000E+00
  0.00000000E+00  2.00000000E-10  1.00000000E-02
ECP-MxAtEC                                 I           250000
ECP-MaxLECP                                I               10
ECP-MaxAtL                                 I          2250000