serine                                                                  
FOpt      RB3LYP                                                      6-31G(d)            
Number of atoms                            I               14
Info1-9                                    I   N=           9
          60          60           0           0           0         110
           2          18        -502
Full Title                                 C   N=           1
serine      
Route                                      C   N=           7
#P B3LYP/6-31G* OPT OUTPUT=PICKETT symmetry=loose geom=(read
allgic,gicallsym)       
Point Group                                C   N=           2
C01                     
Point Group NOp                            I                1
Point Group Abelian NOp                    I                1
Point Group NClass                         I                1
Point Group NIrrep                         I                1
Point Group NGen                           I                1
Point Group NOp symm assign                I                1
Point Group Irrep Names                    H   N=           1
A       
Point Group Class Names                    H   N=           1
E       
Point Group Generators                     I   N=           1
           1
Point Group Class of Operators             I   N=           1
           1
Point Group Rotations                      R   N=          12
  1.00000000E+00 -1.36714820E-17  2.24460636E-18 -1.58534389E-17  1.00000000E+00
 -4.11841603E-18  2.21496467E-18 -1.85732260E-18  1.00000000E+00  0.00000000E+00
  0.00000000E+00  0.00000000E+00
Point Group Cell Trans                     I   N=           3
           0           0           0
Point Group Char Table                     R   N=           1
  1.00000000E+00
Point Group Atom Permutations              I   N=          14
           1           2           3           4           5           6
           7           8           9          10          11          12
          13          14
Charge                                     I                0
Multiplicity                               I                1
Number of electrons                        I               56
Number of alpha electrons                  I               28
Number of beta electrons                   I               28
Number of basis functions                  I              119
Number of independent functions            I              119
Number of point charges in /Mol/           I                0
Number of translation vectors              I                0
Atomic numbers                             I   N=          14
           7           6           6           8           6           8
           8           1           1           1           1           1
           1           1
Nuclear charges                            R   N=          14
  7.00000000E+00  6.00000000E+00  6.00000000E+00  8.00000000E+00  6.00000000E+00
  8.00000000E+00  8.00000000E+00  1.00000000E+00  1.00000000E+00  1.00000000E+00
  1.00000000E+00  1.00000000E+00  1.00000000E+00  1.00000000E+00
Current cartesian coordinates              R   N=          42
 -1.88429827E-01  3.73699426E+00 -6.01192939E-01  4.88892083E-01  1.07605627E+00
 -9.40162335E-01  2.82881036E+00  2.25032713E-01  5.91027985E-01  3.28973936E+00
 -2.40974502E+00  4.75170661E-01 -1.75002491E+00 -6.08287739E-01 -2.85941542E-01
 -2.55911271E+00 -2.30435248E+00 -1.58334323E+00 -2.72059388E+00 -2.14262295E-02
  2.01282235E+00  1.30860287E+00  4.85422047E+00 -1.06758649E+00 -5.93351787E-01
  4.06999285E+00  1.25108743E+00  8.48499473E-01  7.56182792E-01 -2.95509552E+00
  2.52528327E+00  6.57474886E-01  2.59150361E+00  4.47143516E+00  1.33564134E+00
 -5.63681172E-02  3.37789343E+00 -2.90278434E+00 -1.28911246E+00 -4.10568102E+00
 -1.20230546E+00  2.30717915E+00
Number of symbols in /Mol/                 I                0
Int Atom Types                             I   N=          14
           0           0           0           0           0           0
           0           0           0           0           0           0
           0           0
Force Field                                I                0
Atom Types                                 C   N=          14
                                                            
                                                            
                                                
MM charges                                 R   N=          14
  0.00000000E+00  0.00000000E+00  0.00000000E+00  0.00000000E+00  0.00000000E+00
  0.00000000E+00  0.00000000E+00  0.00000000E+00  0.00000000E+00  0.00000000E+00
  0.00000000E+00  0.00000000E+00  0.00000000E+00  0.00000000E+00
Integer atomic weights                     I   N=          14
          14          12          12          16          12          16
          16           1           1           1           1           1
           1           1
Real atomic weights                        R   N=          14
  1.40030740E+01  1.20000000E+01  1.20000000E+01  1.59949146E+01  1.20000000E+01
  1.59949146E+01  1.59949146E+01  1.00782504E+00  1.00782504E+00  1.00782504E+00
  1.00782504E+00  1.00782504E+00  1.00782504E+00  1.00782504E+00
Atom fragment info                         I   N=          14
           0           0           0           0           0           0
           0           0           0           0           0           0
           0           0
Atom residue num                           I   N=          14
           0           0           0           0           0           0
           0           0           0           0           0           0
           0           0
Nuclear spins                              I   N=          14
           2           0           0           0           0           0
           0           1           1           1           1           1
           1           1
Nuclear ZEff                               R   N=          14
 -4.55000000E+00 -3.60000000E+00 -3.60000000E+00 -5.60000000E+00 -3.60000000E+00
 -5.60000000E+00 -5.60000000E+00 -1.00000000E+00 -1.00000000E+00 -1.00000000E+00
 -1.00000000E+00 -1.00000000E+00 -1.00000000E+00 -1.00000000E+00
Nuclear ZNuc                               R   N=          14
  7.00000000E+00  6.00000000E+00  6.00000000E+00  8.00000000E+00  6.00000000E+00
  8.00000000E+00  8.00000000E+00  1.00000000E+00  1.00000000E+00  1.00000000E+00
  1.00000000E+00  1.00000000E+00  1.00000000E+00  1.00000000E+00
Nuclear QMom                               R   N=          14
  2.04400000E+00  0.00000000E+00  0.00000000E+00  0.00000000E+00  0.00000000E+00
  0.00000000E+00  0.00000000E+00  0.00000000E+00  0.00000000E+00  0.00000000E+00
  0.00000000E+00  0.00000000E+00  0.00000000E+00  0.00000000E+00
Nuclear GFac                               R   N=          14
  4.03761000E-01  0.00000000E+00  0.00000000E+00  0.00000000E+00  0.00000000E+00
  0.00000000E+00  0.00000000E+00  2.79284600E+00  2.79284600E+00  2.79284600E+00
  2.79284600E+00  2.79284600E+00  2.79284600E+00  2.79284600E+00
MicOpt                                     I   N=          14
          -1          -1          -1          -1          -1          -1
          -1          -1          -1          -1          -1          -1
          -1          -1
Number of residues                         I                0
Number of secondary structures             I                0
Redundant internal dimensions              I   N=           4
          36           0           0           0
CrData-IFlags                              I   N=          16
          -2         582           1          36        1298         113
           1           0           0           1           0         140
         140     1083792     2110000           0
CrData-InfCrd                              I   N=        5820
         100          -1           1           4           1           0
           1          -1          -1           1          62          -1
           5           1           1           0           1          -1
          -1           2           2          -1           6           3
           1           0         111           0           3           3
         100          -1           9           4           1           0
           1          -1          -1           1          62          -1
          13           1           1           0           1          -1
          -1           2           2          -1          14           3
           1           0         111          10          13           3
         100          -1          17           4           1           0
           1          -1          -1           1          62          -1
          21           1           1           0           1          -1
          -1           2           2          -1          22           3
           1           0         111          20          23           3
         100          -1          25           4           1           0
           1          -1          -1           1          62          -1
          29           1           1           0           1          -1
          -1           2           2          -1          30           3
           1           0         111          30          33           3
         100          -1          33           4           1           0
           1          -1          -1           1          62          -1
          37           1           1           0           1          -1
          -1           2           2          -1          38           3
           1           0         111          40          43           3
         100          -1          41           4           1           0
           1          -1          -1           1          62          -1
          45           1           1           0           1          -1
          -1           2           2          -1          46           3
           1           0         111          50          53           3
         100          -1          49           4           1           0
           1          -1          -1           1          62          -1
          53           1           1           0           1          -1
          -1           2           2          -1          54           3
           1           0         111          61          64           3
         100          -1          57           4           1           0
           1          -1          -1           1          62          -1
          61           1           1           0           1          -1
          -1           2           2          -1          62           3
           1           0         111          71          74           3
         100          -1          65           4           1           0
           1          -1          -1           1          62          -1
          69           1           1           0           1          -1
          -1           2           2          -1          70           3
           1           0         111          82          85           3
         100          -1          73           4           1           0
           1          -1          -1           1          62          -1
          77           1           1           0           1          -1
          -1           2           2          -1          78           3
           1           0         111          93          97           3
         100          -1          81           4           1           0
           1          -1          -1           1          62          -1
          85           1           1           0           1          -1
          -1           2           2          -1          86           3
           1           0         111         105         109           3
         100          -1          89           4           1           0
           1          -1          -1           1          62          -1
          93           1           1           0           1          -1
          -1           2           2          -1          94           3
           1           0         111         116         120           3
         100          -1          97           4           1           0
           1          -1          -1           1          62          -1
         101           1           1           0           1          -1
          -1           2           2          -1         102           3
           1           0         111         127         131           3
          58          -1         105           0           1           1
           1          -1          -1           1         100          -1
         105           4           2           0           1          -1
          -1           1          61          -1         109           1
           2           0           1          -1          -1           3
          61          -1         110           1           2           0
           1          -1          -1           3          52          -1
         111           2           2           0           1          -1
          -1           4          52          -1         113           2
           2           0           1          -1          -1           5
          73          -1         115           1           2           0
           1          -1          -1           6           3          -1
         116           4           2           0         221          -1
          -1           7          52          -1         120           2
           2           0           1          -1          -1           8
          58          -1         122           0           2           1
           1          -1          -1           1         100          -1
         122           4           3           0           1          -1
          -1           1          61          -1         126           1
           3           0           1          -1          -1           3
          52          -1         127           2           3           0
           1          -1          -1           4          52          -1
         129           2           3           0           1          -1
          -1           5          73          -1         131           1
           3           0           1          -1          -1           6
           3          -1         132           4           3           0
         221          -1          -1           7          52          -1
         136           2           3           0           1          -1
          -1           8          51          -1         138           2
           3           0           1          -1          -1           9
         100          -1         140           4           3           0
           1          -1          -1           1          52          -1
         144           2           3           0           1          -1
          -1           4          52          -1         146           2
           3           0           1          -1          -1           5
          73          -1         148           1           3           0
           1          -1          -1           6           3          -1
         149           4           3           0         221          -1
          -1           7          52          -1         153           2
           3           0           1          -1          -1           8
          51          -1         155           2           3           0
         201         139         145          10          58          -1
         157           0           3           1           1          -1
          -1           1          52          -1         157           2
           4           0           1          -1          -1           8
          52          -1         159           2           4           0
           1          -1          -1           8          51          -1
         161           2           4           0         201         152
         158           9          58          -1         163           0
           4           1           1          -1          -1           1
         100          -1         163           4           5           0
           1          -1          -1           1          61          -1
         167           1           5           0           1          -1
          -1           3          61          -1         168           1
           5           0           1          -1          -1           3
          52          -1         169           2           5           0
           1          -1          -1           4          52          -1
         171           2           5           0           1          -1
          -1           5          73          -1         173           1
           5           0           1          -1          -1           6
           3          -1         174           4           5           0
         221          -1          -1           7          52          -1
         178           2           5           0           1          -1
          -1           8          58          -1         180           0
           5           1           1          -1          -1           1
         100          -1         180           4           6           0
           1          -1          -1           1          52          -1
         184           2           6           0           1          -1
          -1           4          52          -1         186           2
           6           0           1          -1          -1           5
          58          -1         188           0           6           1
           1          -1          -1           1          52          -1
         188           2           7           0           1          -1
          -1           6          73          -1         190           1
           7           0           1          -1          -1           7
           3          -1         191           4           7           0
         221          -1          -1           8          52          -1
         195           2           7           0           1          -1
          -1           9          51          -1         197           2
           7           0           1          -1          -1          10
         100          -1         199           4           7           0
           1          -1          -1           1          52          -1
         203           2           7           0           1          -1
          -1           4          52          -1         205           2
           7           0           1          -1          -1           5
          52          -1         207           2           7           0
           1          -1          -1           6          73          -1
         209           1           7           0           1          -1
          -1           7           3          -1         210           4
           7           0         221          -1          -1           8
          52          -1         214           2           7           0
           1          -1          -1           9          51          -1
         216           2           7           0         201         165
         171          11          52          -1         218           2
           7           0           1          -1          -1           9
          52          -1         220           2           7           0
           1          -1          -1           9          51          -1
         222           2           7           0         201         178
         184          10         100          -1         224           4
           7           0           1          -1          -1           1
          61          -1         228           1           7           0
           1          -1          -1           3          52          -1
         229           2           7           0           1          -1
          -1           4          52          -1         231           2
           7           0           1          -1          -1           5
          73          -1         233           1           7           0
           1          -1          -1           6           3          -1
         234           4           7           0         221          -1
          -1           7          52          -1         238           2
           7           0           1          -1          -1           8
          51          -1         240           2           7           0
           1          -1          -1           9         100          -1
         242           4           7           0           1          -1
          -1           1          52          -1         246           2
           7           0           1          -1          -1           4
          52          -1         248           2           7           0
           1          -1          -1           5          73          -1
         250           1           7           0           1          -1
          -1           6           3          -1         251           4
           7           0         221          -1          -1           7
          52          -1         255           2           7           0
           1          -1          -1           8          51          -1
         257           2           7           0         201         191
         197          10          52          -1         259           2
           7           0           1          -1          -1           8
          52          -1         261           2           7           0
           1          -1          -1           8          51          -1
         263           2           7           0         201         205
         211           9         100          -1         265           4
           7           0           1          -1          -1           1
          52          -1         269           2           7           0
           1          -1          -1           4          52          -1
         271           2           7           0           1          -1
          -1           5          52          -1         273           2
           7           0           1          -1          -1           6
          73          -1         275           1           7           0
           1          -1          -1           7           3          -1
         276           4           7           0         221         219
         222           8         100          -1         280           4
           7           0           1          -1          -1           1
          61          -1         284           1           7           0
           1          -1          -1           3          61          -1
         285           1           7           0           1          -1
          -1           3          52          -1         286           2
           7           0           1          -1          -1           4
          52          -1         288           2           7           0
           1          -1          -1           5          73          -1
         290           1           7           0           1          -1
          -1           6           3          -1         291           4
           7           0         221          -1          -1           7
          52          -1         295           2           7           0
           1          -1          -1           8         100          -1
         297           4           7           0           1          -1
          -1           1          52          -1         301           2
           7           0           1          -1          -1           4
          52          -1         303           2           7           0
           1          -1          -1           5          52          -1
         305           2           7           0           1          -1
          -1           6          73          -1         307           1
           7           0           1          -1          -1           7
           3          -1         308           4           7           0
         221          -1          -1           8          52          -1
         312           2           7           0           1          -1
          -1           9          51          -1         314           2
           7           0           1          -1          -1          10
         100          -1         316           4           7           0
           1          -1          -1           1          52          -1
         320           2           7           0           1          -1
          -1           4          52          -1         322           2
           7           0           1          -1          -1           5
          52          -1         324           2           7           0
           1          -1          -1           6          73          -1
         326           1           7           0           1          -1
          -1           7           3          -1         327           4
           7           0         221          -1          -1           8
          52          -1         331           2           7           0
           1          -1          -1           9          51          -1
         333           2           7           0         201         231
         237          11          52          -1         335           2
           7           0           1          -1          -1           9
          52          -1         337           2           7           0
           1          -1          -1           9          51          -1
         339           2           7           0         201         245
         251          10         100          -1         341           4
           7           0           1          -1          -1           1
          61          -1         345           1           7           0
           1          -1          -1           3          52          -1
         346           2           7           0           1          -1
          -1           4          52          -1         348           2
           7           0           1          -1          -1           5
          73          -1         350           1           7           0
           1          -1          -1           6           3          -1
         351           4           7           0         221          -1
          -1           7          52          -1         355           2
           7           0           1          -1          -1           8
          51          -1         357           2           7           0
           1          -1          -1           9         100          -1
         359           4           7           0           1          -1
          -1           1          52          -1         363           2
           7           0           1          -1          -1           4
          52          -1         365           2           7           0
           1          -1          -1           5          73          -1
         367           1           7           0           1          -1
          -1           6           3          -1         368           4
           7           0         221          -1          -1           7
          52          -1         372           2           7           0
           1          -1          -1           8          51          -1
         374           2           7           0         201         259
         266          10          52          -1         376           2
           7           0           1          -1          -1           8
          52          -1         378           2           7           0
           1          -1          -1           8          51          -1
         380           2           7           0         201         274
         281           9         100          -1         382           4
           7           0           1          -1          -1           1
          52          -1         386           2           7           0
           1          -1          -1           4          52          -1
         388           2           7           0           1          -1
          -1           5          52          -1         390           2
           7           0           1          -1          -1           6
          73          -1         392           1           7           0
           1          -1          -1           7           3          -1
         393           4           7           0         221         289
         293           8         100          -1         397           4
           7           0           1          -1          -1           1
          61          -1         401           1           7           0
           1          -1          -1           3          52          -1
         402           2           7           0           1          -1
          -1           4          52          -1         404           2
           7           0           1          -1          -1           5
          52          -1         406           2           7           0
           1          -1          -1           6          73          -1
         408           1           7           0           1          -1
          -1           7           3          -1         409           4
           7           0         221         302         306           8
         100          -1         413           4           7           0
           1          -1          -1           1          61          -1